 Entering Gaussian System, Link 0=g16
 Input=glut_nitro_anion_nickel_complex.gjf
 Output=glut_nitro_anion_nickel_complex.out
 Initial command:
 /n/sw/g16_nehalem/g16/l1.exe "/scratch/dhuang9_glut_nitro_anion_nickel_complex/Gau-23860.inp" -scrdir="/scratch/dhuang9_glut_nitro_anion_nickel_complex/"
 Entering Link 1 = /n/sw/g16_nehalem/g16/l1.exe PID=     23861.
  
 Copyright (c) 1988,1990,1992,1993,1995,1998,2003,2009,2016,
            Gaussian, Inc.  All Rights Reserved.
  
 This is part of the Gaussian(R) 16 program.  It is based on
 the Gaussian(R) 09 system (copyright 2009, Gaussian, Inc.),
 the Gaussian(R) 03 system (copyright 2003, Gaussian, Inc.),
 the Gaussian(R) 98 system (copyright 1998, Gaussian, Inc.),
 the Gaussian(R) 94 system (copyright 1995, Gaussian, Inc.),
 the Gaussian 92(TM) system (copyright 1992, Gaussian, Inc.),
 the Gaussian 90(TM) system (copyright 1990, Gaussian, Inc.),
 the Gaussian 88(TM) system (copyright 1988, Gaussian, Inc.),
 the Gaussian 86(TM) system (copyright 1986, Carnegie Mellon
 University), and the Gaussian 82(TM) system (copyright 1983,
 Carnegie Mellon University). Gaussian is a federally registered
 trademark of Gaussian, Inc.
  
 This software contains proprietary and confidential information,
 including trade secrets, belonging to Gaussian, Inc.
  
 This software is provided under written license and may be
 used, copied, transmitted, or stored only in accord with that
 written license.
  
 The following legend is applicable only to US Government
 contracts under FAR:
  
                    RESTRICTED RIGHTS LEGEND
  
 Use, reproduction and disclosure by the US Government is
 subject to restrictions as set forth in subparagraphs (a)
 and (c) of the Commercial Computer Software - Restricted
 Rights clause in FAR 52.227-19.
  
 Gaussian, Inc.
 340 Quinnipiac St., Bldg. 40, Wallingford CT 06492
  
  
 ---------------------------------------------------------------
 Warning -- This program may not be used in any manner that
 competes with the business of Gaussian, Inc. or will provide
 assistance to any competitor of Gaussian, Inc.  The licensee
 of this program is prohibited from giving any competitor of
 Gaussian, Inc. access to this program.  By using this program,
 the user acknowledges that Gaussian, Inc. is engaged in the
 business of creating and licensing software in the field of
 computational chemistry and represents and warrants to the
 licensee that it is not a competitor of Gaussian, Inc. and that
 it will not use this program in any manner prohibited above.
 ---------------------------------------------------------------
  

 Cite this work as:
 Gaussian 16, Revision A.03,
 M. J. Frisch, G. W. Trucks, H. B. Schlegel, G. E. Scuseria, 
 M. A. Robb, J. R. Cheeseman, G. Scalmani, V. Barone, 
 G. A. Petersson, H. Nakatsuji, X. Li, M. Caricato, A. V. Marenich, 
 J. Bloino, B. G. Janesko, R. Gomperts, B. Mennucci, H. P. Hratchian, 
 J. V. Ortiz, A. F. Izmaylov, J. L. Sonnenberg, D. Williams-Young, 
 F. Ding, F. Lipparini, F. Egidi, J. Goings, B. Peng, A. Petrone, 
 T. Henderson, D. Ranasinghe, V. G. Zakrzewski, J. Gao, N. Rega, 
 G. Zheng, W. Liang, M. Hada, M. Ehara, K. Toyota, R. Fukuda, 
 J. Hasegawa, M. Ishida, T. Nakajima, Y. Honda, O. Kitao, H. Nakai, 
 T. Vreven, K. Throssell, J. A. Montgomery, Jr., J. E. Peralta, 
 F. Ogliaro, M. J. Bearpark, J. J. Heyd, E. N. Brothers, K. N. Kudin, 
 V. N. Staroverov, T. A. Keith, R. Kobayashi, J. Normand, 
 K. Raghavachari, A. P. Rendell, J. C. Burant, S. S. Iyengar, 
 J. Tomasi, M. Cossi, J. M. Millam, M. Klene, C. Adamo, R. Cammi, 
 J. W. Ochterski, R. L. Martin, K. Morokuma, O. Farkas, 
 J. B. Foresman, and D. J. Fox, Gaussian, Inc., Wallingford CT, 2016.
 
 ******************************************
 Gaussian 16:  ES64L-G16RevA.03 25-Dec-2016
                28-Feb-2018 
 ******************************************
 %nprocshared=5
 Will use up to    5 processors via shared memory.
 %mem=4GB
 ----------------------------------------------------------------------
 #p b3lyp empiricaldispersion=gd3bj 6-31g scrf=(pcm,solvent=1,4-dioxane
 ) opt freq=noraman
 ----------------------------------------------------------------------
 1/18=20,19=15,26=3,38=1/1,3;
 2/9=110,12=2,17=6,18=5,40=1/2;
 3/5=1,6=6,11=2,25=1,30=1,70=2201,71=1,72=31,74=-5,124=41/1,2,3;
 4//1;
 5/5=2,38=5,53=31/2;
 6/7=2,8=2,9=2,10=2,28=1/1;
 7//1,2,3,16;
 1/18=20,19=15,26=3/3(2);
 2/9=110/2;
 99//99;
 2/9=110/2;
 3/5=1,6=6,11=2,25=1,30=1,70=2205,71=1,72=31,74=-5,124=41/1,2,3;
 4/5=5,16=3,69=1/1;
 5/5=2,38=5,53=31/2;
 7//1,2,3,16;
 1/18=20,19=15,26=3/3(-5);
 2/9=110/2;
 6/7=2,8=2,9=2,10=2,19=2,28=1/1;
 99/9=1/99;
 Leave Link    1 at Wed Feb 28 20:17:29 2018, MaxMem=   536870912 cpu:               0.4 elap:               0.1
 (Enter /n/sw/g16_nehalem/g16/l101.exe)
 ----------------------------
 Glutamic Acid Nickel Complex
 ----------------------------
 Symbolic Z-matrix:
 Charge =  1 Multiplicity = 3
 C                    -1.47905  -0.04145   0.23644 
 H                    -1.32641   0.96056  -0.1905 
 H                    -1.40211   0.10257   1.32912 
 C                    -0.36148  -0.99256  -0.21723 
 H                    -0.39306  -1.1238   -1.30744 
 H                    -0.50778  -1.98123   0.2272 
 C                     1.04101  -0.48731   0.18729 
 H                     1.04042  -0.32899   1.27196 
 C                     2.11282  -1.53232  -0.1034 
 C                    -2.82375  -0.56329  -0.15254 
 H                    -2.96743  -1.54728  -0.57699 
 O                     3.10116  -1.37877  -0.82734 
 O                     1.85955  -2.69581   0.57323 
 H                     2.54801  -3.37467   0.39934 
 N                     1.34185   0.7652   -0.48843 
 H                     0.90291   0.92196  -1.38775 
 C                     2.26479   1.70245  -0.11451 
 O                     2.4845    2.70719  -0.84003 
 C                     2.99041   1.48312   1.19226 
 H                     2.29197   1.39715   2.03162 
 H                     3.59196   0.56871   1.15884 
 H                     3.64989   2.33271   1.36748 
 N                    -3.91222   0.17799   0.01256 
 O                    -3.81459   1.4023    0.54849 
 O                    -5.11867  -0.27767  -0.34956 
 C                    -9.01894   0.37493  -2.12723 
 C                    -9.68559   1.59112  -2.13079 
 C                    -9.06781   2.73555  -1.56685 
 C                    -7.77514   2.5656   -1.0263 
 C                    -7.72548   0.28673  -1.57812 
 C                    -9.66948   4.04065  -1.51428 
 C                    -7.0941    3.66901  -0.42395 
 C                    -7.70757   4.93876  -0.36499 
 C                    -9.01698   5.09747  -0.93795 
 C                    -6.97655   5.97864   0.26242 
 H                    -7.40631   6.97106   0.32748 
 C                    -5.71977   5.71849   0.78818 
 C                    -5.16967   4.42686   0.68182 
 H                    -10.65628   4.17143  -1.94216 
 H                    -9.47518  -0.5112   -2.54701 
 H                    -10.67656   1.67499  -2.56066 
 H                    -7.17395  -0.64338  -1.56876 
 H                    -9.48006   6.07641  -0.90341 
 H                    -5.14842   6.49653   1.27585 
 H                    -4.18866   4.19267   1.07189 
 N                    -7.12402   1.35986  -1.0472 
 N                    -5.84399   3.43411   0.08597 
 Ni                   -5.30783   1.58476  -0.32155 
 
 ITRead=  0  0  0  0  0  0  0  0  0  0  0  0  0  0  0  0  0  0  0  0
 ITRead=  0  0  0  0  0  0  0  0  0  0  0  0  0  0  0  0  0  0  0  0
 ITRead=  0  0  0  0  0  0  0  0
 MicOpt= -1 -1 -1 -1 -1 -1 -1 -1 -1 -1 -1 -1 -1 -1 -1 -1 -1 -1 -1 -1
 MicOpt= -1 -1 -1 -1 -1 -1 -1 -1 -1 -1 -1 -1 -1 -1 -1 -1 -1 -1 -1 -1
 MicOpt= -1 -1 -1 -1 -1 -1 -1 -1
 NAtoms=     48 NQM=       48 NQMF=       0 NMMI=      0 NMMIF=      0
                NMic=       0 NMicF=      0.
                    Isotopes and Nuclear Properties:
 (Nuclear quadrupole moments (NQMom) in fm**2, nuclear magnetic moments (NMagM)
  in nuclear magnetons)

  Atom         1           2           3           4           5           6           7           8           9          10
 IAtWgt=          12           1           1          12           1           1          12           1          12          12
 AtmWgt=  12.0000000   1.0078250   1.0078250  12.0000000   1.0078250   1.0078250  12.0000000   1.0078250  12.0000000  12.0000000
 NucSpn=           0           1           1           0           1           1           0           1           0           0
 AtZEff=   0.0000000   0.0000000   0.0000000   0.0000000   0.0000000   0.0000000   0.0000000   0.0000000   0.0000000   0.0000000
 NQMom=    0.0000000   0.0000000   0.0000000   0.0000000   0.0000000   0.0000000   0.0000000   0.0000000   0.0000000   0.0000000
 NMagM=    0.0000000   2.7928460   2.7928460   0.0000000   2.7928460   2.7928460   0.0000000   2.7928460   0.0000000   0.0000000
 AtZNuc=   6.0000000   1.0000000   1.0000000   6.0000000   1.0000000   1.0000000   6.0000000   1.0000000   6.0000000   6.0000000

  Atom        11          12          13          14          15          16          17          18          19          20
 IAtWgt=           1          16          16           1          14           1          12          16          12           1
 AtmWgt=   1.0078250  15.9949146  15.9949146   1.0078250  14.0030740   1.0078250  12.0000000  15.9949146  12.0000000   1.0078250
 NucSpn=           1           0           0           1           2           1           0           0           0           1
 AtZEff=   0.0000000   0.0000000   0.0000000   0.0000000   0.0000000   0.0000000   0.0000000   0.0000000   0.0000000   0.0000000
 NQMom=    0.0000000   0.0000000   0.0000000   0.0000000   2.0440000   0.0000000   0.0000000   0.0000000   0.0000000   0.0000000
 NMagM=    2.7928460   0.0000000   0.0000000   2.7928460   0.4037610   2.7928460   0.0000000   0.0000000   0.0000000   2.7928460
 AtZNuc=   1.0000000   8.0000000   8.0000000   1.0000000   7.0000000   1.0000000   6.0000000   8.0000000   6.0000000   1.0000000

  Atom        21          22          23          24          25          26          27          28          29          30
 IAtWgt=           1           1          14          16          16          12          12          12          12          12
 AtmWgt=   1.0078250   1.0078250  14.0030740  15.9949146  15.9949146  12.0000000  12.0000000  12.0000000  12.0000000  12.0000000
 NucSpn=           1           1           2           0           0           0           0           0           0           0
 AtZEff=   0.0000000   0.0000000   0.0000000   0.0000000   0.0000000   0.0000000   0.0000000   0.0000000   0.0000000   0.0000000
 NQMom=    0.0000000   0.0000000   2.0440000   0.0000000   0.0000000   0.0000000   0.0000000   0.0000000   0.0000000   0.0000000
 NMagM=    2.7928460   2.7928460   0.4037610   0.0000000   0.0000000   0.0000000   0.0000000   0.0000000   0.0000000   0.0000000
 AtZNuc=   1.0000000   1.0000000   7.0000000   8.0000000   8.0000000   6.0000000   6.0000000   6.0000000   6.0000000   6.0000000

  Atom        31          32          33          34          35          36          37          38          39          40
 IAtWgt=          12          12          12          12          12           1          12          12           1           1
 AtmWgt=  12.0000000  12.0000000  12.0000000  12.0000000  12.0000000   1.0078250  12.0000000  12.0000000   1.0078250   1.0078250
 NucSpn=           0           0           0           0           0           1           0           0           1           1
 AtZEff=   0.0000000   0.0000000   0.0000000   0.0000000   0.0000000   0.0000000   0.0000000   0.0000000   0.0000000   0.0000000
 NQMom=    0.0000000   0.0000000   0.0000000   0.0000000   0.0000000   0.0000000   0.0000000   0.0000000   0.0000000   0.0000000
 NMagM=    0.0000000   0.0000000   0.0000000   0.0000000   0.0000000   2.7928460   0.0000000   0.0000000   2.7928460   2.7928460
 AtZNuc=   6.0000000   6.0000000   6.0000000   6.0000000   6.0000000   1.0000000   6.0000000   6.0000000   1.0000000   1.0000000

  Atom        41          42          43          44          45          46          47          48
 IAtWgt=           1           1           1           1           1          14          14          58
 AtmWgt=   1.0078250   1.0078250   1.0078250   1.0078250   1.0078250  14.0030740  14.0030740  57.9353471
 NucSpn=           1           1           1           1           1           2           2           0
 AtZEff=   0.0000000   0.0000000   0.0000000   0.0000000   0.0000000   0.0000000   0.0000000   0.0000000
 NQMom=    0.0000000   0.0000000   0.0000000   0.0000000   0.0000000   2.0440000   2.0440000   0.0000000
 NMagM=    2.7928460   2.7928460   2.7928460   2.7928460   2.7928460   0.4037610   0.4037610   0.0000000
 AtZNuc=   1.0000000   1.0000000   1.0000000   1.0000000   1.0000000   7.0000000   7.0000000  28.0000000
 Leave Link  101 at Wed Feb 28 20:17:30 2018, MaxMem=   536870912 cpu:               2.5 elap:               0.6
 (Enter /n/sw/g16_nehalem/g16/l103.exe)

 GradGradGradGradGradGradGradGradGradGradGradGradGradGradGradGradGradGrad
 Berny optimization.
 Initialization pass.
                           ----------------------------
                           !    Initial Parameters    !
                           ! (Angstroms and Degrees)  !
 --------------------------                            --------------------------
 ! Name  Definition              Value          Derivative Info.                !
 --------------------------------------------------------------------------------
 ! R1    R(1,2)                  1.0998         estimate D2E/DX2                !
 ! R2    R(1,3)                  1.1048         estimate D2E/DX2                !
 ! R3    R(1,4)                  1.536          estimate D2E/DX2                !
 ! R4    R(1,10)                 1.4939         estimate D2E/DX2                !
 ! R5    R(4,5)                  1.0985         estimate D2E/DX2                !
 ! R6    R(4,6)                  1.0938         estimate D2E/DX2                !
 ! R7    R(4,7)                  1.5446         estimate D2E/DX2                !
 ! R8    R(7,8)                  1.0962         estimate D2E/DX2                !
 ! R9    R(7,9)                  1.5249         estimate D2E/DX2                !
 ! R10   R(7,15)                 1.4546         estimate D2E/DX2                !
 ! R11   R(9,12)                 1.2347         estimate D2E/DX2                !
 ! R12   R(9,13)                 1.3696         estimate D2E/DX2                !
 ! R13   R(10,11)                1.0812         estimate D2E/DX2                !
 ! R14   R(10,23)                1.3272         estimate D2E/DX2                !
 ! R15   R(13,14)                0.9824         estimate D2E/DX2                !
 ! R16   R(15,16)                1.0129         estimate D2E/DX2                !
 ! R17   R(15,17)                1.3675         estimate D2E/DX2                !
 ! R18   R(17,18)                1.2586         estimate D2E/DX2                !
 ! R19   R(17,19)                1.5107         estimate D2E/DX2                !
 ! R20   R(19,20)                1.0953         estimate D2E/DX2                !
 ! R21   R(19,21)                1.095          estimate D2E/DX2                !
 ! R22   R(19,22)                1.0897         estimate D2E/DX2                !
 ! R23   R(23,24)                1.34           estimate D2E/DX2                !
 ! R24   R(23,25)                1.3395         estimate D2E/DX2                !
 ! R25   R(23,48)                2.0096         estimate D2E/DX2                !
 ! R26   R(24,48)                1.7378         estimate D2E/DX2                !
 ! R27   R(25,48)                1.8722         estimate D2E/DX2                !
 ! R28   R(26,27)                1.3869         estimate D2E/DX2                !
 ! R29   R(26,30)                1.408          estimate D2E/DX2                !
 ! R30   R(26,40)                1.0815         estimate D2E/DX2                !
 ! R31   R(27,28)                1.4175         estimate D2E/DX2                !
 ! R32   R(27,41)                1.0834         estimate D2E/DX2                !
 ! R33   R(28,29)                1.4114         estimate D2E/DX2                !
 ! R34   R(28,31)                1.4381         estimate D2E/DX2                !
 ! R35   R(29,32)                1.4297         estimate D2E/DX2                !
 ! R36   R(29,46)                1.3705         estimate D2E/DX2                !
 ! R37   R(30,42)                1.0814         estimate D2E/DX2                !
 ! R38   R(30,46)                1.3399         estimate D2E/DX2                !
 ! R39   R(31,34)                1.3692         estimate D2E/DX2                !
 ! R40   R(31,39)                1.0835         estimate D2E/DX2                !
 ! R41   R(32,33)                1.4114         estimate D2E/DX2                !
 ! R42   R(32,47)                1.3704         estimate D2E/DX2                !
 ! R43   R(33,34)                1.4381         estimate D2E/DX2                !
 ! R44   R(33,35)                1.4175         estimate D2E/DX2                !
 ! R45   R(34,43)                1.0835         estimate D2E/DX2                !
 ! R46   R(35,36)                1.0834         estimate D2E/DX2                !
 ! R47   R(35,37)                1.3869         estimate D2E/DX2                !
 ! R48   R(37,38)                1.4079         estimate D2E/DX2                !
 ! R49   R(37,44)                1.0815         estimate D2E/DX2                !
 ! R50   R(38,45)                1.0814         estimate D2E/DX2                !
 ! R51   R(38,47)                1.3399         estimate D2E/DX2                !
 ! R52   R(46,48)                1.9687         estimate D2E/DX2                !
 ! R53   R(47,48)                1.9682         estimate D2E/DX2                !
 ! A1    A(2,1,3)              104.803          estimate D2E/DX2                !
 ! A2    A(2,1,4)              110.396          estimate D2E/DX2                !
 ! A3    A(2,1,10)             110.0045         estimate D2E/DX2                !
 ! A4    A(3,1,4)              108.7936         estimate D2E/DX2                !
 ! A5    A(3,1,10)             111.452          estimate D2E/DX2                !
 ! A6    A(4,1,10)             111.2047         estimate D2E/DX2                !
 ! A7    A(1,4,5)              110.2529         estimate D2E/DX2                !
 ! A8    A(1,4,6)              110.0209         estimate D2E/DX2                !
 ! A9    A(1,4,7)              112.3786         estimate D2E/DX2                !
 ! A10   A(5,4,6)              106.9423         estimate D2E/DX2                !
 ! A11   A(5,4,7)              108.971          estimate D2E/DX2                !
 ! A12   A(6,4,7)              108.1017         estimate D2E/DX2                !
 ! A13   A(4,7,8)              107.8126         estimate D2E/DX2                !
 ! A14   A(4,7,9)              111.3528         estimate D2E/DX2                !
 ! A15   A(4,7,15)             110.3522         estimate D2E/DX2                !
 ! A16   A(8,7,9)              106.7368         estimate D2E/DX2                !
 ! A17   A(8,7,15)             109.5975         estimate D2E/DX2                !
 ! A18   A(9,7,15)             110.8645         estimate D2E/DX2                !
 ! A19   A(7,9,12)             126.0985         estimate D2E/DX2                !
 ! A20   A(7,9,13)             110.9788         estimate D2E/DX2                !
 ! A21   A(12,9,13)            122.9126         estimate D2E/DX2                !
 ! A22   A(1,10,11)            122.6644         estimate D2E/DX2                !
 ! A23   A(1,10,23)            120.7109         estimate D2E/DX2                !
 ! A24   A(11,10,23)           116.6248         estimate D2E/DX2                !
 ! A25   A(9,13,14)            111.7161         estimate D2E/DX2                !
 ! A26   A(7,15,16)            117.1338         estimate D2E/DX2                !
 ! A27   A(7,15,17)            127.0648         estimate D2E/DX2                !
 ! A28   A(16,15,17)           115.4142         estimate D2E/DX2                !
 ! A29   A(15,17,18)           120.4855         estimate D2E/DX2                !
 ! A30   A(15,17,19)           117.4633         estimate D2E/DX2                !
 ! A31   A(18,17,19)           122.0503         estimate D2E/DX2                !
 ! A32   A(17,19,20)           111.5913         estimate D2E/DX2                !
 ! A33   A(17,19,21)           111.0195         estimate D2E/DX2                !
 ! A34   A(17,19,22)           108.4564         estimate D2E/DX2                !
 ! A35   A(20,19,21)           107.9467         estimate D2E/DX2                !
 ! A36   A(20,19,22)           108.8978         estimate D2E/DX2                !
 ! A37   A(21,19,22)           108.875          estimate D2E/DX2                !
 ! A38   A(10,23,24)           120.0192         estimate D2E/DX2                !
 ! A39   A(10,23,25)           120.9996         estimate D2E/DX2                !
 ! A40   A(10,23,48)           160.0275         estimate D2E/DX2                !
 ! A41   A(24,23,25)           118.9812         estimate D2E/DX2                !
 ! A42   A(27,26,30)           119.8361         estimate D2E/DX2                !
 ! A43   A(27,26,40)           120.9792         estimate D2E/DX2                !
 ! A44   A(30,26,40)           119.1836         estimate D2E/DX2                !
 ! A45   A(26,27,28)           119.8314         estimate D2E/DX2                !
 ! A46   A(26,27,41)           120.5672         estimate D2E/DX2                !
 ! A47   A(28,27,41)           119.6014         estimate D2E/DX2                !
 ! A48   A(27,28,29)           117.0204         estimate D2E/DX2                !
 ! A49   A(27,28,31)           124.395          estimate D2E/DX2                !
 ! A50   A(29,28,31)           118.5846         estimate D2E/DX2                !
 ! A51   A(28,29,32)           120.3112         estimate D2E/DX2                !
 ! A52   A(28,29,46)           122.3594         estimate D2E/DX2                !
 ! A53   A(32,29,46)           117.3291         estimate D2E/DX2                !
 ! A54   A(26,30,42)           121.7232         estimate D2E/DX2                !
 ! A55   A(26,30,46)           121.1149         estimate D2E/DX2                !
 ! A56   A(42,30,46)           117.1616         estimate D2E/DX2                !
 ! A57   A(28,31,34)           121.0965         estimate D2E/DX2                !
 ! A58   A(28,31,39)           118.4343         estimate D2E/DX2                !
 ! A59   A(34,31,39)           120.4691         estimate D2E/DX2                !
 ! A60   A(29,32,33)           120.3217         estimate D2E/DX2                !
 ! A61   A(29,32,47)           117.3234         estimate D2E/DX2                !
 ! A62   A(33,32,47)           122.3546         estimate D2E/DX2                !
 ! A63   A(32,33,34)           118.5814         estimate D2E/DX2                !
 ! A64   A(32,33,35)           117.0197         estimate D2E/DX2                !
 ! A65   A(34,33,35)           124.3989         estimate D2E/DX2                !
 ! A66   A(31,34,33)           121.0931         estimate D2E/DX2                !
 ! A67   A(31,34,43)           120.4709         estimate D2E/DX2                !
 ! A68   A(33,34,43)           118.436          estimate D2E/DX2                !
 ! A69   A(33,35,36)           119.6023         estimate D2E/DX2                !
 ! A70   A(33,35,37)           119.8344         estimate D2E/DX2                !
 ! A71   A(36,35,37)           120.5633         estimate D2E/DX2                !
 ! A72   A(35,37,38)           119.8343         estimate D2E/DX2                !
 ! A73   A(35,37,44)           120.979          estimate D2E/DX2                !
 ! A74   A(38,37,44)           119.1856         estimate D2E/DX2                !
 ! A75   A(37,38,45)           121.7279         estimate D2E/DX2                !
 ! A76   A(37,38,47)           121.1099         estimate D2E/DX2                !
 ! A77   A(45,38,47)           117.1619         estimate D2E/DX2                !
 ! A78   A(29,46,30)           119.8293         estimate D2E/DX2                !
 ! A79   A(29,46,48)           109.4008         estimate D2E/DX2                !
 ! A80   A(30,46,48)           130.6686         estimate D2E/DX2                !
 ! A81   A(32,47,38)           119.8391         estimate D2E/DX2                !
 ! A82   A(32,47,48)           109.422          estimate D2E/DX2                !
 ! A83   A(38,47,48)           130.6303         estimate D2E/DX2                !
 ! A84   A(23,48,46)           128.4622         estimate D2E/DX2                !
 ! A85   A(23,48,47)           144.3455         estimate D2E/DX2                !
 ! A86   A(24,48,25)            79.4105         estimate D2E/DX2                !
 ! A87   A(24,48,46)           164.8501         estimate D2E/DX2                !
 ! A88   A(24,48,47)           103.2426         estimate D2E/DX2                !
 ! A89   A(25,48,46)            88.5129         estimate D2E/DX2                !
 ! A90   A(25,48,47)           164.8718         estimate D2E/DX2                !
 ! A91   A(46,48,47)            86.1209         estimate D2E/DX2                !
 ! D1    D(2,1,4,5)            -63.4501         estimate D2E/DX2                !
 ! D2    D(2,1,4,6)            178.8372         estimate D2E/DX2                !
 ! D3    D(2,1,4,7)             58.3297         estimate D2E/DX2                !
 ! D4    D(3,1,4,5)           -177.9359         estimate D2E/DX2                !
 ! D5    D(3,1,4,6)             64.3513         estimate D2E/DX2                !
 ! D6    D(3,1,4,7)            -56.1562         estimate D2E/DX2                !
 ! D7    D(10,1,4,5)            58.9437         estimate D2E/DX2                !
 ! D8    D(10,1,4,6)           -58.7691         estimate D2E/DX2                !
 ! D9    D(10,1,4,7)          -179.2766         estimate D2E/DX2                !
 ! D10   D(2,1,10,11)          130.1972         estimate D2E/DX2                !
 ! D11   D(2,1,10,23)          -49.8003         estimate D2E/DX2                !
 ! D12   D(3,1,10,11)         -114.0052         estimate D2E/DX2                !
 ! D13   D(3,1,10,23)           65.9973         estimate D2E/DX2                !
 ! D14   D(4,1,10,11)            7.5774         estimate D2E/DX2                !
 ! D15   D(4,1,10,23)         -172.4201         estimate D2E/DX2                !
 ! D16   D(1,4,7,8)             55.5084         estimate D2E/DX2                !
 ! D17   D(1,4,7,9)            172.2766         estimate D2E/DX2                !
 ! D18   D(1,4,7,15)           -64.1577         estimate D2E/DX2                !
 ! D19   D(5,4,7,8)            178.015          estimate D2E/DX2                !
 ! D20   D(5,4,7,9)            -65.2168         estimate D2E/DX2                !
 ! D21   D(5,4,7,15)            58.3489         estimate D2E/DX2                !
 ! D22   D(6,4,7,8)            -66.1003         estimate D2E/DX2                !
 ! D23   D(6,4,7,9)             50.6679         estimate D2E/DX2                !
 ! D24   D(6,4,7,15)           174.2336         estimate D2E/DX2                !
 ! D25   D(4,7,9,12)           122.0558         estimate D2E/DX2                !
 ! D26   D(4,7,9,13)           -59.0852         estimate D2E/DX2                !
 ! D27   D(8,7,9,12)          -120.5221         estimate D2E/DX2                !
 ! D28   D(8,7,9,13)            58.3369         estimate D2E/DX2                !
 ! D29   D(15,7,9,12)           -1.218          estimate D2E/DX2                !
 ! D30   D(15,7,9,13)          177.641          estimate D2E/DX2                !
 ! D31   D(4,7,15,16)          -28.3996         estimate D2E/DX2                !
 ! D32   D(4,7,15,17)          159.1128         estimate D2E/DX2                !
 ! D33   D(8,7,15,16)         -146.981          estimate D2E/DX2                !
 ! D34   D(8,7,15,17)           40.5315         estimate D2E/DX2                !
 ! D35   D(9,7,15,16)           95.4486         estimate D2E/DX2                !
 ! D36   D(9,7,15,17)          -77.0389         estimate D2E/DX2                !
 ! D37   D(7,9,13,14)         -179.5356         estimate D2E/DX2                !
 ! D38   D(12,9,13,14)          -0.6338         estimate D2E/DX2                !
 ! D39   D(1,10,23,24)          -0.8324         estimate D2E/DX2                !
 ! D40   D(1,10,23,25)         179.1617         estimate D2E/DX2                !
 ! D41   D(1,10,23,48)          78.983          estimate D2E/DX2                !
 ! D42   D(11,10,23,24)        179.1699         estimate D2E/DX2                !
 ! D43   D(11,10,23,25)         -0.8359         estimate D2E/DX2                !
 ! D44   D(11,10,23,48)       -101.0147         estimate D2E/DX2                !
 ! D45   D(7,15,17,18)         175.4512         estimate D2E/DX2                !
 ! D46   D(7,15,17,19)          -4.8885         estimate D2E/DX2                !
 ! D47   D(16,15,17,18)          2.8525         estimate D2E/DX2                !
 ! D48   D(16,15,17,19)       -177.4872         estimate D2E/DX2                !
 ! D49   D(15,17,19,20)        -57.4154         estimate D2E/DX2                !
 ! D50   D(15,17,19,21)         63.0539         estimate D2E/DX2                !
 ! D51   D(15,17,19,22)       -177.3685         estimate D2E/DX2                !
 ! D52   D(18,17,19,20)        122.2392         estimate D2E/DX2                !
 ! D53   D(18,17,19,21)       -117.2915         estimate D2E/DX2                !
 ! D54   D(18,17,19,22)          2.2861         estimate D2E/DX2                !
 ! D55   D(10,23,48,46)        103.4791         estimate D2E/DX2                !
 ! D56   D(10,23,48,47)        -92.9646         estimate D2E/DX2                !
 ! D57   D(30,26,27,28)         -0.7685         estimate D2E/DX2                !
 ! D58   D(30,26,27,41)        179.2826         estimate D2E/DX2                !
 ! D59   D(40,26,27,28)        179.627          estimate D2E/DX2                !
 ! D60   D(40,26,27,41)         -0.3219         estimate D2E/DX2                !
 ! D61   D(27,26,30,42)       -179.3459         estimate D2E/DX2                !
 ! D62   D(27,26,30,46)          0.4308         estimate D2E/DX2                !
 ! D63   D(40,26,30,42)          0.2657         estimate D2E/DX2                !
 ! D64   D(40,26,30,46)       -179.9575         estimate D2E/DX2                !
 ! D65   D(26,27,28,29)          0.2614         estimate D2E/DX2                !
 ! D66   D(26,27,28,31)       -179.8034         estimate D2E/DX2                !
 ! D67   D(41,27,28,29)       -179.7892         estimate D2E/DX2                !
 ! D68   D(41,27,28,31)          0.146          estimate D2E/DX2                !
 ! D69   D(27,28,29,32)       -179.1703         estimate D2E/DX2                !
 ! D70   D(27,28,29,46)          0.6111         estimate D2E/DX2                !
 ! D71   D(31,28,29,32)          0.8906         estimate D2E/DX2                !
 ! D72   D(31,28,29,46)       -179.328          estimate D2E/DX2                !
 ! D73   D(27,28,31,34)        179.1972         estimate D2E/DX2                !
 ! D74   D(27,28,31,39)         -0.7626         estimate D2E/DX2                !
 ! D75   D(29,28,31,34)         -0.8685         estimate D2E/DX2                !
 ! D76   D(29,28,31,39)        179.1717         estimate D2E/DX2                !
 ! D77   D(28,29,32,33)         -0.0426         estimate D2E/DX2                !
 ! D78   D(28,29,32,47)        179.7527         estimate D2E/DX2                !
 ! D79   D(46,29,32,33)       -179.8348         estimate D2E/DX2                !
 ! D80   D(46,29,32,47)         -0.0395         estimate D2E/DX2                !
 ! D81   D(28,29,46,30)         -0.9682         estimate D2E/DX2                !
 ! D82   D(28,29,46,48)        175.7525         estimate D2E/DX2                !
 ! D83   D(32,29,46,30)        178.8194         estimate D2E/DX2                !
 ! D84   D(32,29,46,48)         -4.4599         estimate D2E/DX2                !
 ! D85   D(26,30,46,29)          0.4324         estimate D2E/DX2                !
 ! D86   D(26,30,46,48)       -175.4885         estimate D2E/DX2                !
 ! D87   D(42,30,46,29)       -179.7811         estimate D2E/DX2                !
 ! D88   D(42,30,46,48)          4.298          estimate D2E/DX2                !
 ! D89   D(28,31,34,33)         -0.0161         estimate D2E/DX2                !
 ! D90   D(28,31,34,43)       -179.9667         estimate D2E/DX2                !
 ! D91   D(39,31,34,33)        179.9429         estimate D2E/DX2                !
 ! D92   D(39,31,34,43)         -0.0078         estimate D2E/DX2                !
 ! D93   D(29,32,33,34)         -0.8352         estimate D2E/DX2                !
 ! D94   D(29,32,33,35)        179.2262         estimate D2E/DX2                !
 ! D95   D(47,32,33,34)        179.3801         estimate D2E/DX2                !
 ! D96   D(47,32,33,35)         -0.5584         estimate D2E/DX2                !
 ! D97   D(29,32,47,38)       -178.8774         estimate D2E/DX2                !
 ! D98   D(29,32,47,48)          4.5182         estimate D2E/DX2                !
 ! D99   D(33,32,47,38)          0.9133         estimate D2E/DX2                !
 ! D100  D(33,32,47,48)       -175.691          estimate D2E/DX2                !
 ! D101  D(32,33,34,31)          0.8713         estimate D2E/DX2                !
 ! D102  D(32,33,34,43)       -179.1771         estimate D2E/DX2                !
 ! D103  D(35,33,34,31)       -179.1951         estimate D2E/DX2                !
 ! D104  D(35,33,34,43)          0.7565         estimate D2E/DX2                !
 ! D105  D(32,33,35,36)        179.7657         estimate D2E/DX2                !
 ! D106  D(32,33,35,37)         -0.2831         estimate D2E/DX2                !
 ! D107  D(34,33,35,36)         -0.1689         estimate D2E/DX2                !
 ! D108  D(34,33,35,37)        179.7823         estimate D2E/DX2                !
 ! D109  D(33,35,37,38)          0.7626         estimate D2E/DX2                !
 ! D110  D(33,35,37,44)       -179.6384         estimate D2E/DX2                !
 ! D111  D(36,35,37,38)       -179.2867         estimate D2E/DX2                !
 ! D112  D(36,35,37,44)          0.3123         estimate D2E/DX2                !
 ! D113  D(35,37,38,45)        179.3782         estimate D2E/DX2                !
 ! D114  D(35,37,38,47)         -0.4258         estimate D2E/DX2                !
 ! D115  D(44,37,38,45)         -0.228          estimate D2E/DX2                !
 ! D116  D(44,37,38,47)        179.9681         estimate D2E/DX2                !
 ! D117  D(37,38,47,32)         -0.4077         estimate D2E/DX2                !
 ! D118  D(37,38,47,48)        175.3713         estimate D2E/DX2                !
 ! D119  D(45,38,47,32)        179.7798         estimate D2E/DX2                !
 ! D120  D(45,38,47,48)         -4.4412         estimate D2E/DX2                !
 ! D121  D(29,46,48,23)        175.9313         estimate D2E/DX2                !
 ! D122  D(29,46,48,24)        134.3607         estimate D2E/DX2                !
 ! D123  D(29,46,48,25)        171.2979         estimate D2E/DX2                !
 ! D124  D(29,46,48,47)          5.4507         estimate D2E/DX2                !
 ! D125  D(30,46,48,23)         -7.8199         estimate D2E/DX2                !
 ! D126  D(30,46,48,24)        -49.3905         estimate D2E/DX2                !
 ! D127  D(30,46,48,25)        -12.4533         estimate D2E/DX2                !
 ! D128  D(30,46,48,47)       -178.3005         estimate D2E/DX2                !
 ! D129  D(32,47,48,23)       -172.6355         estimate D2E/DX2                !
 ! D130  D(32,47,48,24)       -173.4126         estimate D2E/DX2                !
 ! D131  D(32,47,48,25)        -74.9549         estimate D2E/DX2                !
 ! D132  D(32,47,48,46)         -5.4715         estimate D2E/DX2                !
 ! D133  D(38,47,48,23)         11.2463         estimate D2E/DX2                !
 ! D134  D(38,47,48,24)         10.4692         estimate D2E/DX2                !
 ! D135  D(38,47,48,25)        108.9269         estimate D2E/DX2                !
 ! D136  D(38,47,48,46)        178.4103         estimate D2E/DX2                !
 --------------------------------------------------------------------------------
 Trust Radius=3.00D-01 FncErr=1.00D-07 GrdErr=1.00D-06 EigMax=2.50D+02 EigMin=1.00D-04
 Number of steps in this run=    288 maximum allowed number of steps=    288.
 GradGradGradGradGradGradGradGradGradGradGradGradGradGradGradGradGradGrad

 Leave Link  103 at Wed Feb 28 20:17:31 2018, MaxMem=   536870912 cpu:               0.3 elap:               0.1
 (Enter /n/sw/g16_nehalem/g16/l202.exe)
                          Input orientation:                          
 ---------------------------------------------------------------------
 Center     Atomic      Atomic             Coordinates (Angstroms)
 Number     Number       Type             X           Y           Z
 ---------------------------------------------------------------------
      1          6           0       -1.479046   -0.041447    0.236436
      2          1           0       -1.326406    0.960560   -0.190496
      3          1           0       -1.402114    0.102572    1.329123
      4          6           0       -0.361475   -0.992558   -0.217231
      5          1           0       -0.393063   -1.123795   -1.307440
      6          1           0       -0.507781   -1.981229    0.227198
      7          6           0        1.041006   -0.487307    0.187288
      8          1           0        1.040425   -0.328987    1.271963
      9          6           0        2.112824   -1.532315   -0.103395
     10          6           0       -2.823749   -0.563287   -0.152540
     11          1           0       -2.967427   -1.547275   -0.576988
     12          8           0        3.101164   -1.378766   -0.827339
     13          8           0        1.859546   -2.695806    0.573227
     14          1           0        2.548009   -3.374665    0.399337
     15          7           0        1.341852    0.765202   -0.488428
     16          1           0        0.902913    0.921963   -1.387747
     17          6           0        2.264791    1.702450   -0.114511
     18          8           0        2.484503    2.707187   -0.840025
     19          6           0        2.990408    1.483122    1.192260
     20          1           0        2.291974    1.397152    2.031619
     21          1           0        3.591955    0.568710    1.158839
     22          1           0        3.649888    2.332713    1.367480
     23          7           0       -3.912215    0.177990    0.012557
     24          8           0       -3.814592    1.402298    0.548493
     25          8           0       -5.118669   -0.277665   -0.349559
     26          6           0       -9.018942    0.374932   -2.127226
     27          6           0       -9.685592    1.591117   -2.130789
     28          6           0       -9.067811    2.735546   -1.566853
     29          6           0       -7.775144    2.565604   -1.026296
     30          6           0       -7.725484    0.286727   -1.578122
     31          6           0       -9.669478    4.040649   -1.514277
     32          6           0       -7.094102    3.669010   -0.423955
     33          6           0       -7.707574    4.938761   -0.364988
     34          6           0       -9.016980    5.097474   -0.937948
     35          6           0       -6.976553    5.978635    0.262424
     36          1           0       -7.406315    6.971063    0.327476
     37          6           0       -5.719775    5.718493    0.788180
     38          6           0       -5.169667    4.426865    0.681817
     39          1           0      -10.656275    4.171432   -1.942156
     40          1           0       -9.475182   -0.511198   -2.547010
     41          1           0      -10.676563    1.674989   -2.560655
     42          1           0       -7.173947   -0.643382   -1.568761
     43          1           0       -9.480060    6.076411   -0.903413
     44          1           0       -5.148423    6.496528    1.275848
     45          1           0       -4.188658    4.192673    1.071891
     46          7           0       -7.124019    1.359859   -1.047196
     47          7           0       -5.843986    3.434114    0.085967
     48         28           0       -5.307827    1.584764   -0.321547
 ---------------------------------------------------------------------
                    Distance matrix (angstroms):
                    1          2          3          4          5
     1  C    0.000000
     2  H    1.099813   0.000000
     3  H    1.104819   1.746745   0.000000
     4  C    1.536031   2.178641   2.161816   0.000000
     5  H    2.175865   2.542288   3.077925   1.098534   0.000000
     6  H    2.169377   3.082002   2.521170   1.093797   1.761666
     7  C    2.559662   2.800657   2.760540   1.544625   2.166999
     8  H    2.739111   3.066530   2.481029   2.150197   3.056129
     9  C    3.903806   4.248566   4.132766   2.535045   2.809997
    10  C    1.493936   2.136723   2.158643   2.500250   2.748854
    11  H    2.268139   3.021848   2.967399   2.688517   2.709289
    12  O    4.888595   5.047910   5.208090   3.537126   3.536259
    13  O    4.278463   4.909437   4.363568   2.908404   3.329020
    14  H    5.230110   5.844071   5.344076   3.810471   4.077917
    15  N    3.022181   2.691938   3.357368   2.462639   2.692400
    16  H    3.039713   2.530763   3.655945   2.575689   2.423041
    17  C    4.144955   3.667815   4.253220   3.764425   4.058932
    18  O    4.942012   4.242125   5.157035   4.709095   4.814072
    19  C    4.818084   4.562890   4.606398   4.398952   4.948979
    20  H    4.417334   4.268616   3.976899   4.220051   4.971309
    21  H    5.190199   5.115127   5.018666   4.467744   4.982718
    22  H    5.763841   5.391994   5.522474   5.446078   5.953830
    23  N    2.453281   2.709253   2.835426   3.745763   3.977621
    24  O    2.763432   2.632927   2.849337   4.271497   4.640312
    25  O    3.694055   3.992463   4.095770   4.812429   4.895388
    26  C    7.912667   7.954181   8.368787   8.970499   8.793408
    27  C    8.695770   8.604552   9.099602   9.862871   9.715953
    28  C    8.279667   8.060663   8.607098   9.566636   9.498055
    29  C    6.930516   6.697832   7.227035   8.263025   8.257471
    30  C    6.512934   6.582383   6.962112   7.597185   7.471763
    31  C    9.317279   8.991451   9.588675  10.660883  10.619140
    32  C    6.762578   6.376247   6.942009   8.191533   8.285858
    33  C    7.997421   7.521691   8.125119   9.442857   9.546982
    34  C    9.198268   8.764569   9.384819  10.607812  10.640143
    35  C    8.152586   7.570362   8.169476   9.622207   9.810776
    36  H    9.182380   8.565030   9.177685  10.646396  10.834454
    37  C    7.173919   6.549612   7.104462   8.646411   8.920896
    38  C    5.812474   5.248509   5.771739   7.300489   7.588340
    39  H   10.330351  10.021201  10.625271  11.645817  11.566149
    40  H    8.479766   8.609401   8.976389   9.419089   9.186767
    41  H    9.765459   9.672306  10.179306  10.909101  10.730989
    42  H    6.004412   6.218198   6.501403   6.954016   6.802902
    43  H   10.136255   9.652060  10.291948  11.558104  11.600850
    44  H    7.569005   6.885124   7.410827   9.012801   9.346452
    45  H    5.095856   4.498073   4.955796   6.572349   6.952164
    46  N    5.956265   5.874155   6.322014   7.207962   7.179278
    47  N    5.581654   5.157851   5.689889   7.053033   7.240765
    48  Ni   4.197079   4.032185   4.491792   5.578518   5.697647
                    6          7          8          9         10
     6  H    0.000000
     7  C    2.152240   0.000000
     8  H    2.493668   1.096169   0.000000
     9  C    2.679251   1.524904   2.118879   0.000000
    10  C    2.741983   3.880411   4.125039   5.031022   0.000000
    11  H    2.623907   4.216063   4.578834   5.102300   1.081218
    12  O    3.807820   2.463416   3.123420   1.234702   6.018717
    13  O    2.496917   2.386718   2.600197   1.369554   5.196886
    14  H    3.362908   3.263872   3.508624   1.958668   6.088037
    15  N    3.387646   1.454606   2.094537   2.453820   4.385195
    16  H    3.609242   2.117982   2.942421   3.022735   4.197584
    17  C    4.623139   2.526612   2.747384   3.238352   5.570301
    18  O    5.663389   3.652923   3.970416   4.319045   6.272653
    19  C    5.017011   2.948343   2.663180   3.397313   6.308779
    20  H    4.744262   2.918504   2.263406   3.629347   5.897838
    21  H    4.917111   2.926845   2.707206   2.862756   6.645479
    22  H    6.098897   4.018909   3.728682   4.411857   7.252948
    23  N    4.037136   5.000755   5.135345   6.264159   1.327218
    24  O    4.741992   5.222826   5.204992   6.646140   2.310139
    25  O    4.949249   6.186578   6.369176   7.343653   2.321003
    26  C    9.139730  10.358715  10.641469  11.473870   6.569631
    27  C   10.126893  11.169298  11.415470  12.372096   7.459210
    28  C    9.936835  10.754160  10.937398  12.056655   7.202145
    29  C    8.663689   9.408377   9.559022  10.743212   5.921969
    30  C    7.778049   8.975921   9.238141  10.113162   5.175115
    31  C   11.101011  11.752114  11.897852  13.109964   8.361493
    32  C    8.702231   9.155794   9.221206  10.579415   6.018465
    33  C   10.003697  10.309455  10.341966  11.763650   7.359987
    34  C   11.129783  11.559369  11.639655  12.981645   8.427170
    35  C   10.256983  10.300258  10.250717  11.796821   7.759815
    36  H   11.302361  11.269613  11.204026  12.771339   8.831578
    37  C    9.314789   9.196803   9.083301  10.710683   6.980879
    38  C    7.937476   7.935118   7.844211   9.442619   5.576836
    39  H   12.064546  12.769681  12.938204  14.105448   9.325704
    40  H    9.501132  10.865872  11.189091  11.886792   7.069495
    41  H   11.159937  12.228170  12.489704  13.412433   8.513260
    42  H    7.032288   8.401995   8.697383   9.443602   4.575623
    43  H   12.112210  12.448488  12.507677  13.889842   9.431642
    44  H    9.721502   9.395103   9.213551  10.912853   7.568712
    45  H    7.237363   7.073479   6.915832   8.594501   5.097191
    46  N    7.520742   8.461892   8.653834   9.724953   4.794916
    47  N    7.604010   7.924072   7.934899   9.381476   5.015768
    48  Ni   6.004820   6.697766   6.819239   8.051697   3.288363
                   11         12         13         14         15
    11  H    0.000000
    12  O    6.076090   0.000000
    13  O    5.093308   2.288623   0.000000
    14  H    5.891740   2.407141   0.982379   0.000000
    15  N    4.891347   2.794036   3.657006   4.402436   0.000000
    16  H    4.661974   3.231055   4.224786   4.935689   1.012925
    17  C    6.176626   3.271320   4.470108   5.110905   1.367503
    18  O    6.920490   4.132244   5.619625   6.207171   2.280477
    19  C    6.914430   3.504490   4.373270   4.941916   2.461272
    20  H    6.567783   4.066221   4.366487   5.049766   2.766357
    21  H    7.107459   2.824614   3.741824   4.149322   2.795543
    22  H    7.913540   4.346654   5.396496   5.892843   3.350898
    23  N    2.053467   7.233008   6.471961   7.382781   5.310464
    24  O    3.268697   7.579902   6.999351   7.957658   5.298114
    25  O    2.508281   8.307006   7.442743   8.302422   6.545624
    26  C    6.535974  12.315118  11.621677  12.419233  10.496858
    27  C    7.576116  13.191676  12.608712  13.443270  11.179624
    28  C    7.519114  12.866949  12.388973  13.271317  10.649241
    29  C    6.342854  11.571159  11.093609  11.995279   9.308618
    30  C    5.196628  10.979702  10.266285  11.084259   9.145106
    31  C    8.776155  13.889969  13.515025  14.419285  11.533877
    32  C    6.653006  11.383594  11.030551  11.969188   8.921972
    33  C    8.036330  12.528117  12.275856  13.224002   9.966240
    34  C    8.993335  13.740572  13.465425  14.398418  11.237261
    35  C    8.568374  12.525148  12.386250  13.349916   9.845788
    36  H    9.647998  13.470722  13.392720  14.357152  10.756804
    37  C    7.888630  11.436343  11.326638  12.296055   8.719598
    38  C    6.490362  10.217120  10.007700  10.977531   7.561556
    39  H    9.679136  14.876647  14.495926  15.387634  12.556703
    40  H    6.877886  12.722988  11.957611  12.705807  11.084908
    41  H    8.587707  14.218142  13.641081  14.462015  12.229642
    42  H    4.415365  10.328040   9.508131  10.288331   8.698854
    43  H   10.032025  14.624385  14.412457  15.352343  12.062128
    44  H    8.537712  11.597385  11.580342  12.547661   8.836540
    45  H    6.095671   9.369605   9.180445  10.153797   6.690941
    46  N    5.094093  10.587860   9.988926  10.865372   8.505105
    47  N    5.790366  10.198708   9.856863  10.811256   7.686956
    48  Ni   3.918213   8.930256   8.396138   9.318249   6.702071
                   16         17         18         19         20
    16  H    0.000000
    17  C    2.021139   0.000000
    18  O    2.447131   1.258626   0.000000
    19  C    3.365854   1.510720   2.425790   0.000000
    20  H    3.721204   2.167907   3.162214   1.095319   0.000000
    21  H    3.720327   2.160590   3.129695   1.095046   1.771443
    22  H    4.138522   2.124152   2.524169   1.089688   1.777719
    23  N    5.069497   6.363610   6.931215   7.123291   6.637389
    24  O    5.121972   6.122790   6.580981   6.835861   6.284094
    25  O    6.227069   7.647979   8.182794   8.440066   7.961950
    26  C    9.964401  11.538456  11.807860  12.508859  12.094534
    27  C   10.635615  12.119794  12.289137  13.104781  12.681693
    28  C   10.135901  11.471898  11.575190  12.433097  11.991039
    29  C    8.839733  10.118136  10.262314  11.044947  10.585981
    30  C    8.653843  10.195687  10.518900  11.132687  10.705734
    31  C   11.023505  12.241458  12.245489  13.196174  12.752952
    32  C    8.510430   9.568281   9.635761  10.444501   9.964417
    33  C    9.556212  10.487350  10.444329  11.349594  10.875554
    34  C   10.772255  11.810275  11.747645  12.719225  12.263896
    35  C    9.506787  10.189715  10.071214  10.973357  10.489311
    36  H   10.420023  11.021975  10.833835  11.788011  11.315008
    37  C    8.461758   8.983136   8.889836   9.693757   9.187396
    38  C    7.310517   7.957873   7.991221   8.689821   8.165611
    39  H   12.020035  13.281194  13.267960  14.257753  13.825508
    40  H   10.540527  12.191975  12.502235  13.166260  12.769950
    41  H   11.663063  13.170536  13.313139  14.174177  13.760419
    42  H    8.229140   9.834000  10.249050  10.745202  10.331030
    43  H   11.602114  12.557684  12.430063  13.453725  13.003487
    44  H    8.648074   8.937115   8.780523   9.559383   9.051759
    45  H    6.532339   7.018245   7.098814   7.674317   7.122822
    46  N    8.046078   9.441241   9.704737  10.360116   9.906635
    47  N    7.348699   8.294041   8.411279   9.114646   8.609798
    48  Ni   6.336354   7.576362   7.889807   8.435795   7.957987
                   21         22         23         24         25
    21  H    0.000000
    22  H    1.777243   0.000000
    23  N    7.601263   7.978975   0.000000
    24  O    7.478257   7.566695   1.340033   0.000000
    25  O    8.880686   9.308592   1.339508   2.308547   0.000000
    26  C   13.033438  13.287029   5.540408   5.941398   4.335679
    27  C   13.717150  13.806624   6.318444   6.456225   5.246133
    28  C   13.129899  13.058041   5.967897   5.817950   5.114388
    29  C   11.746205  11.675434   4.658555   4.418055   3.949558
    30  C   11.647098  11.927352   4.133171   4.589343   2.936561
    31  C   13.966586  13.734157   7.099115   6.745043   6.380773
    32  C   11.238724  10.973981   4.743645   4.103514   4.414081
    33  C   12.210600  11.780699   6.100183   5.338195   5.823553
    34  C   13.560658  13.168464   7.152860   6.551997   6.665969
    35  C   11.906478  11.288718   6.565066   5.569802   6.554964
    36  H   12.753166  12.034763   7.645506   6.630269   7.631236
    37  C   10.647345   9.979462   5.879289   4.724056   6.132674
    38  C    9.585350   9.090663   4.481298   3.316927   4.816527
    39  H   15.020248  14.798678   8.077798   7.789741   7.279829
    40  H   13.625329  13.988514   6.162221   6.729479   4.884930
    41  H   14.786788  14.869770   7.390456   7.538422   6.292217
    42  H   11.172002  11.603192   3.716735   4.466860   2.417514
    43  H   14.334059  13.840801   8.162798   7.486848   7.726757
    44  H   10.561578   9.734271   6.561101   5.315951   6.966529
    45  H    8.583624   8.061614   4.161284   2.863575   4.782192
    46  N   10.969258  11.083961   3.582677   3.674280   2.681345
    47  N    9.919606   9.643081   3.786749   2.908719   3.806976
    48  Ni   9.079098   9.146196   2.009570   1.737819   1.872220
                   26         27         28         29         30
    26  C    0.000000
    27  C    1.386918   0.000000
    28  C    2.426706   1.417531   0.000000
    29  C    2.749204   2.412331   1.411407   0.000000
    30  C    1.407952   2.418449   2.792612   2.345263   0.000000
    31  C    3.773113   2.525975   1.438076   2.449977   4.227898
    32  C    4.178168   3.734533   2.464366   1.429733   3.629130
    33  C    5.064949   4.270519   2.854625   2.464502   4.807644
    34  C    4.869988   3.763569   2.444752   2.821405   5.022059
    35  C    6.425205   5.684775   4.270509   3.734612   6.028792
    36  H    7.220462   6.338926   4.928353   4.623506   6.957983
    37  C    6.923708   6.425209   5.064929   4.178226   6.255105
    38  C    6.255061   6.028747   4.807557   3.629111   5.364724
    39  H    4.138661   2.763300   2.173900   3.423215   4.879855
    40  H    1.081481   2.153426   3.415847   3.830067   2.153340
    41  H    2.150748   1.083441   2.168065   3.400836   3.406099
    42  H    2.180104   3.408405   3.873484   3.309577   1.081380
    43  H    5.849547   4.654734   3.430959   3.904818   6.087217
    44  H    8.002235   7.500275   6.130867   5.258488   7.303973
    45  H    6.938381   6.873248   5.735183   4.462356   5.898146
    46  N    2.393173   2.790933   2.437393   1.370483   1.339871
    47  N    4.933270   4.802976   3.689561   2.391821   4.026819
    48  Ni   4.300761   4.736900   4.124629   2.747066   3.018104
                   31         32         33         34         35
    31  C    0.000000
    32  C    2.821255   0.000000
    33  C    2.444696   1.411415   0.000000
    34  C    1.369229   2.449930   1.438060   0.000000
    35  C    3.763549   2.412323   1.417524   2.526000   0.000000
    36  H    4.135370   3.400836   2.168067   2.775946   1.083439
    37  C    4.869972   2.749260   2.426751   3.773161   1.386934
    38  C    5.021981   2.345320   2.792635   4.227904   2.418413
    39  H    1.083491   3.904669   3.430903   2.133841   4.654730
    40  H    4.671574   5.258426   6.130883   5.852883   7.500267
    41  H    2.775873   4.623379   4.928292   4.135311   6.338866
    42  H    5.307616   4.462475   5.735343   6.062353   6.873378
    43  H    2.133860   3.423194   2.173904   1.083491   2.763383
    44  H    5.852869   3.830125   3.415879   4.671613   2.153439
    45  H    6.062241   3.309590   3.873505   5.307618   3.408411
    46  N    3.726146   2.391967   3.689782   4.191062   4.803119
    47  N    4.190830   1.370397   2.437270   3.725998   2.790777
    48  Ni   5.145676   2.746879   4.124314   5.145570   4.736219
                   36         37         38         39         40
    36  H    0.000000
    37  C    2.150721   0.000000
    38  C    3.406039   1.407919   0.000000
    39  H    4.852979   5.849545   6.087146   0.000000
    40  H    8.278111   8.002227   7.303920   4.867017   0.000000
    41  H    6.861794   7.220414   6.957898   2.571998   2.494578
    42  H    7.850445   6.938533   5.898275   5.953861   2.504022
    43  H    2.572141   4.138761   4.879902   2.468079   6.789553
    44  H    2.494527   1.081481   2.153331   6.789555   9.079830
    45  H    4.315893   2.180124   1.081380   7.135475   7.947968
    46  N    5.784033   4.933376   4.026848   4.602470   3.358313
    47  N    3.874172   2.393099   1.339887   5.273997   5.973579
    48  Ni   5.816967   4.299873   3.017178   6.158175   5.168423
                   41         42         43         44         45
    41  H    0.000000
    42  H    4.315903   0.000000
    43  H    4.852894   7.135577   0.000000
    44  H    8.278063   7.948136   4.867109   0.000000
    45  H    7.850289   6.266772   5.953926   2.504097   0.000000
    46  N    3.874330   2.070627   5.274227   5.973683   4.596925
    47  N    5.783851   4.597053   4.602352   3.358275   2.070645
    48  Ni   5.817652   3.162687   6.158002   5.167447   3.161549
                   46         47         48
    46  N    0.000000
    47  N    2.687951   0.000000
    48  Ni   1.968681   1.968153   0.000000
 Stoichiometry    C19H19N4NiO5(1+,3)
 Framework group  C1[X(C19H19N4NiO5)]
 Deg. of freedom   138
 Full point group                 C1      NOp   1
 Largest Abelian subgroup         C1      NOp   1
 Largest concise Abelian subgroup C1      NOp   1
                         Standard orientation:                         
 ---------------------------------------------------------------------
 Center     Atomic      Atomic             Coordinates (Angstroms)
 Number     Number       Type             X           Y           Z
 ---------------------------------------------------------------------
      1          6           0       -2.761773   -0.644035   -0.504804
      2          1           0       -2.539751    0.234837    0.117994
      3          1           0       -2.886211   -0.241964   -1.526312
      4          6           0       -4.082528   -1.292642   -0.064001
      5          1           0       -3.996809   -1.668708    0.964591
      6          1           0       -4.307745   -2.153320   -0.700322
      7          6           0       -5.273950   -0.312753   -0.142739
      8          1           0       -5.320062    0.077533   -1.166035
      9          6           0       -6.597066   -1.025522    0.115440
     10          6           0       -1.631537   -1.618487   -0.435111
     11          1           0       -1.778942   -2.669229   -0.227159
     12          8           0       -7.411287   -0.749416    1.001610
     13          8           0       -6.799719   -2.028200   -0.795190
     14          1           0       -7.653247   -2.490215   -0.643200
     15          7           0       -5.087089    0.786926    0.790893
     16          1           0       -4.541420    0.598606    1.623237
     17          6           0       -5.683573    2.016663    0.745967
     18          8           0       -5.496705    2.851102    1.669510
     19          6           0       -6.556330    2.324476   -0.448111
     20          1           0       -6.003296    2.223889   -1.388196
     21          1           0       -7.417668    1.649560   -0.489469
     22          1           0       -6.915512    3.349299   -0.357857
     23          7           0       -0.380478   -1.220527   -0.630010
     24          8           0       -0.121431    0.064263   -0.909110
     25          8           0        0.638838   -2.086123   -0.552435
     26          6           0        4.682727   -3.050020    0.678817
     27          6           0        5.707139   -2.123147    0.801400
     28          6           0        5.448160   -0.750145    0.562263
     29          6           0        4.127424   -0.398630    0.209894
     30          6           0        3.387142   -2.620567    0.333335
     31          6           0        6.435354    0.291267    0.656981
     32          6           0        3.792056    0.963937   -0.064108
     33          6           0        4.778242    1.970469    0.016041
     34          6           0        6.114001    1.596244    0.395147
     35          6           0        4.372846    3.294752   -0.286123
     36          1           0        5.095138    4.100620   -0.234054
     37          6           0        3.057788    3.548550   -0.646393
     38          6           0        2.128379    2.492086   -0.694557
     39          1           0        7.445302    0.020482    0.940942
     40          1           0        4.860923   -4.102717    0.851091
     41          1           0        6.705888   -2.439124    1.077991
     42          1           0        2.563859   -3.315421    0.239710
     43          1           0        6.866007    2.372756    0.469096
     44          1           0        2.729858    4.550795   -0.886327
     45          1           0        1.093562    2.656767   -0.961797
     46          7           0        3.123243   -1.325975    0.110526
     47          7           0        2.492939    1.235587   -0.405414
     48         28           0        1.421973   -0.409804   -0.266322
 ---------------------------------------------------------------------
 Rotational constants (GHZ):           0.3263986           0.0578984           0.0509344
 Leave Link  202 at Wed Feb 28 20:17:31 2018, MaxMem=   536870912 cpu:               0.7 elap:               0.2
 (Enter /n/sw/g16_nehalem/g16/l301.exe)
 Standard basis: 6-31G (6D, 7F)
 Ernie: Thresh=  0.10000D-02 Tol=  0.10000D-05 Strict=F.
 There are   319 symmetry adapted cartesian basis functions of A   symmetry.
 There are   319 symmetry adapted basis functions of A   symmetry.
   319 basis functions,   786 primitive gaussians,   319 cartesian basis functions
   115 alpha electrons      113 beta electrons
       nuclear repulsion energy      3142.3629429639 Hartrees.
 IExCor=  402 DFT=T Ex+Corr=B3LYP ExCW=0 ScaHFX=  0.200000
 ScaDFX=  0.800000  0.720000  1.000000  0.810000 ScalE2=  1.000000  1.000000
 IRadAn=      5 IRanWt=     -1 IRanGd=            0 ICorTp=0 IEmpDi=141
 NAtoms=   48 NActive=   48 NUniq=   48 SFac= 1.00D+00 NAtFMM=   60 NAOKFM=F Big=F
 Integral buffers will be    131072 words long.
 Raffenetti 2 integral format.
 Two-electron integral symmetry is turned on.
 R6Disp:  Grimme-D3(BJ) Dispersion energy=       -0.1077323750 Hartrees.
 Nuclear repulsion after empirical dispersion term =     3142.2552105889 Hartrees.
 ------------------------------------------------------------------------------
 Polarizable Continuum Model (PCM)
 =================================
 Model                : PCM.
 Atomic radii         : UFF (Universal Force Field).
 Polarization charges : Total charges.
 Charge compensation  : None.
 Solution method      : On-the-fly selection.
 Cavity type          : Scaled VdW (van der Waals Surface) (Alpha=1.100).
 Cavity algorithm     : GePol (No added spheres)
                        Default sphere list used, NSphG=   48.
                        Lebedev-Laikov grids with approx.  5.0 points / Ang**2.
                        Smoothing algorithm: York/Karplus (Gamma=1.0000).
                        Polarization charges: spherical gaussians, with
                                              point-specific exponents (IZeta= 3).
                        Self-potential: point-specific (ISelfS= 7).
                        Self-field    : sphere-specific E.n sum rule (ISelfD= 2).
 1st derivatives      : Analytical E(r).r(x)/FMM algorithm (CHGder, D1EAlg=3).
                        Cavity 1st derivative terms included.
 Solvent              : 1,4-Dioxane, Eps=   2.209900 Eps(inf)=   2.023222
 ------------------------------------------------------------------------------
 GePol: Number of generator spheres                  =      48
 GePol: Total number of spheres                      =      48
 GePol: Number of exposed spheres                    =      48 (100.00%)
 GePol: Number of points                             =    3673
 GePol: Average weight of points                     =       0.13
 GePol: Minimum weight of points                     =   0.49D-11
 GePol: Maximum weight of points                     =    0.20577
 GePol: Number of points with low weight             =     261
 GePol: Fraction of low-weight points (<1% of avg)   =       7.11%
 GePol: Cavity surface area                          =    473.134 Ang**2
 GePol: Cavity volume                                =    518.358 Ang**3
 Leave Link  301 at Wed Feb 28 20:17:31 2018, MaxMem=   536870912 cpu:               0.7 elap:               0.2
 (Enter /n/sw/g16_nehalem/g16/l302.exe)
 NPDir=0 NMtPBC=     1 NCelOv=     1 NCel=       1 NClECP=     1 NCelD=      1
         NCelK=      1 NCelE2=     1 NClLst=     1 CellRange=     0.0.
 One-electron integrals computed using PRISM.
 One-electron integral symmetry used in STVInt
 NBasis=   319 RedAO= T EigKep=  3.68D-04  NBF=   319
 NBsUse=   319 1.00D-06 EigRej= -1.00D+00 NBFU=   319
 Precomputing XC quadrature grid using
 IXCGrd= 4 IRadAn=           5 IRanWt=          -1 IRanGd=           0 AccXCQ= 0.00D+00.
 Generated NRdTot=       0 NPtTot=           0 NUsed=           0 NTot=          32
 NSgBfM=   301   301   301   301   301 MxSgAt=    48 MxSgA2=    48.
 Leave Link  302 at Wed Feb 28 20:17:34 2018, MaxMem=   536870912 cpu:              10.9 elap:               2.8
 (Enter /n/sw/g16_nehalem/g16/l303.exe)
 DipDrv:  MaxL=1.
 Leave Link  303 at Wed Feb 28 20:17:35 2018, MaxMem=   536870912 cpu:               0.6 elap:               0.2
 (Enter /n/sw/g16_nehalem/g16/l401.exe)
 ExpMin= 4.52D-02 ExpMax= 7.14D+04 ExpMxC= 1.07D+04 IAcc=3 IRadAn=         5 AccDes= 0.00D+00
 Harris functional with IExCor=  402 and IRadAn=       5 diagonalized for initial guess.
 HarFok:  IExCor=  402 AccDes= 0.00D+00 IRadAn=         5 IDoV= 1 UseB2=F ITyADJ=14
 ICtDFT=  3500011 ScaDFX=  1.000000  1.000000  1.000000  1.000000
 FoFCou: FMM=F IPFlag=           0 FMFlag=      100000 FMFlg1=           0
         NFxFlg=           0 DoJE=T BraDBF=F KetDBF=T FulRan=T
         wScrn=  0.000000 ICntrl=       500 IOpCl=  0 I1Cent=   200000004 NGrid=           0
         NMat0=    1 NMatS0=      1 NMatT0=    0 NMatD0=    1 NMtDS0=    0 NMtDT0=    0
 Petite list used in FoFCou.
 Harris En= -2838.30146976165    
 JPrj=0 DoOrth=F DoCkMO=F.
 Initial guess <Sx>= 0.0000 <Sy>= 0.0000 <Sz>= 1.0000 <S**2>= 2.0000 S= 1.0000
 Leave Link  401 at Wed Feb 28 20:17:42 2018, MaxMem=   536870912 cpu:              29.9 elap:               7.5
 (Enter /n/sw/g16_nehalem/g16/l502.exe)
 Integral symmetry usage will be decided dynamically.
 UHF open shell SCF:
 Using DIIS extrapolation, IDIIS=  1040.
 NGot=   536870912 LenX=   536661358 LenY=   536559156
 Requested convergence on RMS density matrix=1.00D-08 within 128 cycles.
 Requested convergence on MAX density matrix=1.00D-06.
 Requested convergence on             energy=1.00D-06.
 No special actions if energy rises.
 Fock matrices will be formed incrementally for  20 cycles.

 Cycle   1  Pass 1  IDiag  1:
 FoFJK:  IHMeth= 1 ICntrl=       0 DoSepK=F KAlg= 0 I1Cent=           0 FoldK=F
 IRaf= 630000000 NMat=       1 IRICut=       1 DoRegI=T DoRafI=F ISym2E= 0 IDoP0=0 IntGTp=1.
 FoFCou: FMM=F IPFlag=           0 FMFlag=      100000 FMFlg1=           0
         NFxFlg=           0 DoJE=F BraDBF=F KetDBF=F FulRan=T
         wScrn=  0.000000 ICntrl=         0 IOpCl=  1 I1Cent=           0 NGrid=           0
         NMat0=    1 NMatS0=      1 NMatT0=    0 NMatD0=    1 NMtDS0=    0 NMtDT0=    0
 Symmetry not used in FoFCou.
 Inv3:  Mode=1 IEnd=    40472787.
 Iteration    1 A*A^-1 deviation from unit magnitude is 1.04D-14 for    705.
 Iteration    1 A*A^-1 deviation from orthogonality  is 2.62D-15 for   3669   2869.
 Iteration    1 A^-1*A deviation from unit magnitude is 1.13D-14 for    705.
 Iteration    1 A^-1*A deviation from orthogonality  is 2.52D-15 for   3614    706.
 E= -2835.26645420142    
 DIIS: error= 1.82D-01 at cycle   1 NSaved=   1.
 NSaved= 1 IEnMin= 1 EnMin= -2835.26645420142     IErMin= 1 ErrMin= 1.82D-01
 ErrMax= 1.82D-01  0.00D+00 EMaxC= 1.00D-01 BMatC= 1.80D+01 BMatP= 1.80D+01
 IDIUse=3 WtCom= 0.00D+00 WtEn= 1.00D+00
 Coeff-Com:  0.100D+01
 Coeff-En:   0.100D+01
 Coeff:      0.100D+01
 Gap=    -0.243 Goal=   None    Shift=    0.000
 Gap=     0.417 Goal=   None    Shift=    0.000
 GapD=   -0.243 DampG=0.250 DampE=0.125 DampFc=0.1250 IDamp=-1.
 Damping current iteration by 1.25D-01
 RMSDP=2.18D-02 MaxDP=1.51D+00              OVMax= 9.38D-01

 Cycle   2  Pass 1  IDiag  1:
 RMSU=  2.71D-03    CP:  9.94D-01
 E= -2836.24783001309     Delta-E=       -0.981375811676 Rises=F Damp=T
 DIIS: error= 9.69D-02 at cycle   2 NSaved=   2.
 NSaved= 2 IEnMin= 2 EnMin= -2836.24783001309     IErMin= 2 ErrMin= 9.69D-02
 ErrMax= 9.69D-02  0.00D+00 EMaxC= 1.00D-01 BMatC= 5.76D+00 BMatP= 1.80D+01
 IDIUse=3 WtCom= 3.09D-02 WtEn= 9.69D-01
 Coeff-Com: -0.112D+01 0.212D+01
 Coeff-En:   0.000D+00 0.100D+01
 Coeff:     -0.346D-01 0.103D+01
 Gap=    -0.116 Goal=   None    Shift=    0.000
 Gap=     0.172 Goal=   None    Shift=    0.000
 RMSDP=9.14D-03 MaxDP=4.96D-01 DE=-9.81D-01 OVMax= 9.76D-01

 Cycle   3  Pass 1  IDiag  1:
 RMSU=  8.28D-03    CP:  9.48D-01  2.35D+00
 E= -2832.10284429022     Delta-E=        4.144985722877 Rises=F Damp=F
 DIIS: error= 2.70D-01 at cycle   3 NSaved=   3.
 NSaved= 3 IEnMin= 2 EnMin= -2836.24783001309     IErMin= 2 ErrMin= 9.69D-02
 ErrMax= 2.70D-01  0.00D+00 EMaxC= 1.00D-01 BMatC= 3.62D+01 BMatP= 5.76D+00
 IDIUse=2 WtCom= 0.00D+00 WtEn= 1.00D+00
 EnCoef did   100 forward-backward iterations
 Coeff-En:   0.596D+00 0.217D-01 0.382D+00
 Coeff:      0.596D+00 0.217D-01 0.382D+00
 Gap=     0.205 Goal=   None    Shift=    0.000
 Gap=     0.060 Goal=   None    Shift=    0.000
 RMSDP=7.68D-03 MaxDP=2.88D-01 DE= 4.14D+00 OVMax= 9.89D-01

 Cycle   4  Pass 1  IDiag  1:
 RMSU=  5.66D-03    CP:  9.56D-01  1.00D+00  5.55D-01
 E= -2835.83180843477     Delta-E=       -3.728964144557 Rises=F Damp=F
 DIIS: error= 1.03D-01 at cycle   4 NSaved=   4.
 NSaved= 4 IEnMin= 2 EnMin= -2836.24783001309     IErMin= 2 ErrMin= 9.69D-02
 ErrMax= 1.03D-01  0.00D+00 EMaxC= 1.00D-01 BMatC= 8.40D+00 BMatP= 5.76D+00
 IDIUse=2 WtCom= 0.00D+00 WtEn= 1.00D+00
 EnCoef did   100 forward-backward iterations
 Coeff-En:   0.473D+00 0.109D-01 0.705D-01 0.446D+00
 Coeff:      0.473D+00 0.109D-01 0.705D-01 0.446D+00
 Gap=     0.515 Goal=   None    Shift=    0.000
 Gap=    -0.330 Goal=   None    Shift=    0.000
 RMSDP=6.37D-03 MaxDP=4.32D-01 DE=-3.73D+00 OVMax= 8.77D-01

 Cycle   5  Pass 1  IDiag  1:
 RMSU=  4.80D-03    CP:  9.59D-01  7.50D-01  4.88D-01  2.77D-01
 E= -2837.00945016204     Delta-E=       -1.177641727263 Rises=F Damp=F
 DIIS: error= 7.77D-02 at cycle   5 NSaved=   5.
 NSaved= 5 IEnMin= 5 EnMin= -2837.00945016204     IErMin= 5 ErrMin= 7.77D-02
 ErrMax= 7.77D-02  0.00D+00 EMaxC= 1.00D-01 BMatC= 4.43D+00 BMatP= 5.76D+00
 IDIUse=3 WtCom= 2.23D-01 WtEn= 7.77D-01
 EnCoef did   100 forward-backward iterations
 Coeff-Com: -0.417D+00 0.952D+00-0.865D-01 0.189D+00 0.363D+00
 Coeff-En:   0.308D+00 0.691D-02 0.000D+00 0.334D+00 0.351D+00
 Coeff:      0.146D+00 0.217D+00-0.193D-01 0.302D+00 0.354D+00
 Gap=    -0.038 Goal=   None    Shift=    0.000
 Gap=    -0.022 Goal=   None    Shift=    0.000
 RMSDP=4.96D-03 MaxDP=3.45D-01 DE=-1.18D+00 OVMax= 9.96D-01

 Cycle   6  Pass 1  IDiag  1:
 RMSU=  2.91D-03    CP:  9.76D-01  3.65D-01  2.96D-01  2.08D-01  2.75D-01
 E= -2837.82926918867     Delta-E=       -0.819819026635 Rises=F Damp=F
 DIIS: error= 5.58D-02 at cycle   6 NSaved=   6.
 NSaved= 6 IEnMin= 6 EnMin= -2837.82926918867     IErMin= 6 ErrMin= 5.58D-02
 ErrMax= 5.58D-02  0.00D+00 EMaxC= 1.00D-01 BMatC= 1.80D+00 BMatP= 4.43D+00
 IDIUse=3 WtCom= 4.42D-01 WtEn= 5.58D-01
 EnCoef did     2 forward-backward iterations
 Coeff-Com: -0.481D+00 0.778D+00-0.305D-01 0.878D-01 0.202D+00 0.444D+00
 Coeff-En:   0.000D+00 0.000D+00 0.000D+00 0.208D+00 0.102D+00 0.690D+00
 Coeff:     -0.213D+00 0.343D+00-0.135D-01 0.155D+00 0.146D+00 0.581D+00
 Gap=     0.001 Goal=   None    Shift=    0.000
 Gap=     0.050 Goal=   None    Shift=    0.000
 RMSDP=4.65D-03 MaxDP=3.53D-01 DE=-8.20D-01 OVMax= 9.47D-01

 Cycle   7  Pass 1  IDiag  1:
 RMSU=  2.92D-03    CP:  9.60D-01  7.67D-01  5.51D-01  4.12D-01  3.33D-01
                    CP:  1.68D-01
 E= -2837.40962014839     Delta-E=        0.419649040284 Rises=F Damp=F
 DIIS: error= 9.06D-02 at cycle   7 NSaved=   7.
 NSaved= 7 IEnMin= 6 EnMin= -2837.82926918867     IErMin= 6 ErrMin= 5.58D-02
 ErrMax= 9.06D-02  0.00D+00 EMaxC= 1.00D-01 BMatC= 4.52D+00 BMatP= 1.80D+00
 IDIUse=2 WtCom= 0.00D+00 WtEn= 1.00D+00
 EnCoef did     7 forward-backward iterations
 Coeff-En:   0.000D+00 0.000D+00 0.000D+00 0.123D-01 0.000D+00 0.610D+00
 Coeff-En:   0.378D+00
 Coeff:      0.000D+00 0.000D+00 0.000D+00 0.123D-01 0.000D+00 0.610D+00
 Coeff:      0.378D+00
 Gap=     0.068 Goal=   None    Shift=    0.000
 Gap=    -0.004 Goal=   None    Shift=    0.000
 RMSDP=3.30D-03 MaxDP=1.99D-01 DE= 4.20D-01 OVMax= 9.91D-01

 Cycle   8  Pass 1  IDiag  1:
 RMSU=  2.19D-03    CP:  9.64D-01  7.61D-01  4.42D-01  7.34D-01  1.90D-01
                    CP:  1.93D-01  5.87D-01
 E= -2837.57401689763     Delta-E=       -0.164396749242 Rises=F Damp=F
 DIIS: error= 7.51D-02 at cycle   8 NSaved=   8.
 NSaved= 8 IEnMin= 6 EnMin= -2837.82926918867     IErMin= 6 ErrMin= 5.58D-02
 ErrMax= 7.51D-02  0.00D+00 EMaxC= 1.00D-01 BMatC= 2.57D+00 BMatP= 1.80D+00
 IDIUse=2 WtCom= 0.00D+00 WtEn= 1.00D+00
 EnCoef did     6 forward-backward iterations
 Coeff-En:   0.000D+00 0.000D+00 0.000D+00 0.000D+00 0.000D+00 0.564D+00
 Coeff-En:   0.260D+00 0.176D+00
 Coeff:      0.000D+00 0.000D+00 0.000D+00 0.000D+00 0.000D+00 0.564D+00
 Coeff:      0.260D+00 0.176D+00
 Gap=     0.060 Goal=   None    Shift=    0.000
 Gap=    -0.068 Goal=   None    Shift=    0.000
 RMSDP=3.30D-03 MaxDP=3.17D-01 DE=-1.64D-01 OVMax= 9.93D-01

 Cycle   9  Pass 1  IDiag  1:
 RMSU=  1.98D-03    CP:  9.69D-01  5.98D-01  4.25D-01  4.47D-01  1.86D-01
                    CP:  5.30D-01  7.16D-01  2.17D-01
 E= -2838.25327345704     Delta-E=       -0.679256559413 Rises=F Damp=F
 DIIS: error= 1.26D-02 at cycle   9 NSaved=   9.
 NSaved= 9 IEnMin= 9 EnMin= -2838.25327345704     IErMin= 9 ErrMin= 1.26D-02
 ErrMax= 1.26D-02  0.00D+00 EMaxC= 1.00D-01 BMatC= 7.81D-02 BMatP= 1.80D+00
 IDIUse=3 WtCom= 8.74D-01 WtEn= 1.26D-01
 Coeff-Com: -0.582D-01 0.529D-01-0.515D-02-0.149D-01 0.526D-03 0.255D+00
 Coeff-Com:  0.824D-01 0.110D+00 0.578D+00
 Coeff-En:   0.000D+00 0.000D+00 0.000D+00 0.000D+00 0.000D+00 0.000D+00
 Coeff-En:   0.000D+00 0.000D+00 0.100D+01
 Coeff:     -0.509D-01 0.463D-01-0.450D-02-0.130D-01 0.459D-03 0.223D+00
 Coeff:      0.721D-01 0.958D-01 0.631D+00
 Gap=     0.102 Goal=   None    Shift=    0.000
 Gap=     0.118 Goal=   None    Shift=    0.000
 RMSDP=9.05D-04 MaxDP=2.88D-02 DE=-6.79D-01 OVMax= 4.88D-02

 Cycle  10  Pass 1  IDiag  1:
 RMSU=  8.32D-04    CP:  9.68D-01  5.54D-01  4.44D-01  4.29D-01  1.69D-01
                    CP:  5.75D-01  7.19D-01  1.87D-01  8.90D-01
 E= -2838.26334530727     Delta-E=       -0.010071850223 Rises=F Damp=F
 DIIS: error= 6.68D-03 at cycle  10 NSaved=  10.
 NSaved=10 IEnMin=10 EnMin= -2838.26334530727     IErMin=10 ErrMin= 6.68D-03
 ErrMax= 6.68D-03  0.00D+00 EMaxC= 1.00D-01 BMatC= 5.67D-02 BMatP= 7.81D-02
 IDIUse=3 WtCom= 9.33D-01 WtEn= 6.68D-02
 Coeff-Com: -0.400D-01 0.519D-01-0.369D-03 0.128D-01 0.254D-02 0.727D-01
 Coeff-Com: -0.118D-01 0.272D-01 0.397D+00 0.488D+00
 Coeff-En:   0.000D+00 0.000D+00 0.000D+00 0.000D+00 0.000D+00 0.000D+00
 Coeff-En:   0.000D+00 0.000D+00 0.334D+00 0.666D+00
 Coeff:     -0.373D-01 0.484D-01-0.345D-03 0.120D-01 0.237D-02 0.678D-01
 Coeff:     -0.110D-01 0.254D-01 0.393D+00 0.500D+00
 Gap=     0.121 Goal=   None    Shift=    0.000
 Gap=     0.115 Goal=   None    Shift=    0.000
 RMSDP=4.51D-04 MaxDP=2.00D-02 DE=-1.01D-02 OVMax= 3.64D-02

 Cycle  11  Pass 1  IDiag  1:
 RMSU=  3.61D-04    CP:  9.68D-01  5.69D-01  4.42D-01  4.40D-01  1.71D-01
                    CP:  5.61D-01  6.88D-01  2.03D-01  9.13D-01  7.22D-01
 E= -2838.27409720688     Delta-E=       -0.010751899615 Rises=F Damp=F
 DIIS: error= 3.74D-03 at cycle  11 NSaved=  11.
 NSaved=11 IEnMin=11 EnMin= -2838.27409720688     IErMin=11 ErrMin= 3.74D-03
 ErrMax= 3.74D-03  0.00D+00 EMaxC= 1.00D-01 BMatC= 8.41D-03 BMatP= 5.67D-02
 IDIUse=3 WtCom= 9.63D-01 WtEn= 3.74D-02
 Coeff-Com: -0.181D-01 0.279D-01 0.374D-03 0.703D-02 0.335D-02 0.215D-01
 Coeff-Com: -0.231D-01 0.251D-01 0.138D+00 0.308D+00 0.510D+00
 Coeff-En:   0.000D+00 0.000D+00 0.000D+00 0.000D+00 0.000D+00 0.000D+00
 Coeff-En:   0.000D+00 0.000D+00 0.000D+00 0.507D-01 0.949D+00
 Coeff:     -0.174D-01 0.269D-01 0.360D-03 0.676D-02 0.322D-02 0.207D-01
 Coeff:     -0.222D-01 0.242D-01 0.133D+00 0.299D+00 0.526D+00
 Gap=     0.128 Goal=   None    Shift=    0.000
 Gap=     0.115 Goal=   None    Shift=    0.000
 RMSDP=1.73D-04 MaxDP=7.76D-03 DE=-1.08D-02 OVMax= 1.13D-02

 Cycle  12  Pass 1  IDiag  1:
 RMSU=  1.59D-04    CP:  9.68D-01  5.70D-01  4.44D-01  4.38D-01  1.70D-01
                    CP:  5.58D-01  6.82D-01  2.02D-01  9.09D-01  7.92D-01
                    CP:  9.27D-01
 E= -2838.27574472447     Delta-E=       -0.001647517588 Rises=F Damp=F
 DIIS: error= 2.49D-03 at cycle  12 NSaved=  12.
 NSaved=12 IEnMin=12 EnMin= -2838.27574472447     IErMin=12 ErrMin= 2.49D-03
 ErrMax= 2.49D-03  0.00D+00 EMaxC= 1.00D-01 BMatC= 1.84D-03 BMatP= 8.41D-03
 IDIUse=3 WtCom= 9.75D-01 WtEn= 2.49D-02
 Coeff-Com: -0.696D-02 0.132D-01 0.482D-03-0.558D-03-0.547D-03-0.116D-02
 Coeff-Com: -0.116D-01 0.206D-01-0.787D-01-0.135D-02 0.242D+00 0.825D+00
 Coeff-En:   0.000D+00 0.000D+00 0.000D+00 0.000D+00 0.000D+00 0.000D+00
 Coeff-En:   0.000D+00 0.000D+00 0.000D+00 0.000D+00 0.000D+00 0.100D+01
 Coeff:     -0.679D-02 0.128D-01 0.470D-03-0.544D-03-0.534D-03-0.114D-02
 Coeff:     -0.113D-01 0.200D-01-0.768D-01-0.132D-02 0.236D+00 0.829D+00
 Gap=     0.133 Goal=   None    Shift=    0.000
 Gap=     0.114 Goal=   None    Shift=    0.000
 RMSDP=1.19D-04 MaxDP=3.72D-03 DE=-1.65D-03 OVMax= 8.71D-03

 Cycle  13  Pass 1  IDiag  1:
 RMSU=  7.31D-05    CP:  9.67D-01  5.72D-01  4.48D-01  4.37D-01  1.67D-01
                    CP:  5.60D-01  6.73D-01  2.04D-01  8.98D-01  8.47D-01
                    CP:  1.10D+00  1.06D+00
 E= -2838.27623101415     Delta-E=       -0.000486289679 Rises=F Damp=F
 DIIS: error= 8.18D-04 at cycle  13 NSaved=  13.
 NSaved=13 IEnMin=13 EnMin= -2838.27623101415     IErMin=13 ErrMin= 8.18D-04
 ErrMax= 8.18D-04  0.00D+00 EMaxC= 1.00D-01 BMatC= 4.87D-04 BMatP= 1.84D-03
 IDIUse=3 WtCom= 9.92D-01 WtEn= 8.18D-03
 Coeff-Com: -0.537D-02 0.885D-02 0.107D-03-0.122D-03-0.265D-02-0.101D-02
 Coeff-Com: -0.398D-02 0.955D-02-0.710D-01-0.403D-01 0.589D-01 0.516D+00
 Coeff-Com:  0.531D+00
 Coeff-En:   0.000D+00 0.000D+00 0.000D+00 0.000D+00 0.000D+00 0.000D+00
 Coeff-En:   0.000D+00 0.000D+00 0.000D+00 0.000D+00 0.000D+00 0.000D+00
 Coeff-En:   0.100D+01
 Coeff:     -0.532D-02 0.878D-02 0.106D-03-0.121D-03-0.263D-02-0.101D-02
 Coeff:     -0.395D-02 0.947D-02-0.704D-01-0.399D-01 0.584D-01 0.512D+00
 Coeff:      0.535D+00
 Gap=     0.134 Goal=   None    Shift=    0.000
 Gap=     0.113 Goal=   None    Shift=    0.000
 RMSDP=5.06D-05 MaxDP=1.85D-03 DE=-4.86D-04 OVMax= 5.04D-03

 Cycle  14  Pass 1  IDiag  1:
 RMSU=  4.04D-05    CP:  9.67D-01  5.74D-01  4.49D-01  4.37D-01  1.65D-01
                    CP:  5.60D-01  6.73D-01  2.05D-01  8.95D-01  8.59D-01
                    CP:  1.14D+00  1.18D+00  9.55D-01
 E= -2838.27637015757     Delta-E=       -0.000139143421 Rises=F Damp=F
 DIIS: error= 6.40D-04 at cycle  14 NSaved=  14.
 NSaved=14 IEnMin=14 EnMin= -2838.27637015757     IErMin=14 ErrMin= 6.40D-04
[...]
 Coeff-En:   0.000D+00 0.100D+01
 Coeff:     -0.344D-01 0.293D+00 0.144D+00-0.844D+00 0.441D+00-0.114D+01
 Coeff:      0.104D+01 0.338D-01-0.859D-01-0.130D+00-0.790D+00 0.286D+01
 Coeff:     -0.209D+01 0.520D+00 0.315D+00-0.291D+00 0.202D+00 0.654D+00
 Coeff:      0.106D+01-0.116D+01
 Gap=     0.127 Goal=   None    Shift=    0.000
 Gap=     0.117 Goal=   None    Shift=    0.000
 RMSDP=1.82D-04 MaxDP=2.14D-02 DE= 4.75D-05 OVMax= 4.61D-02

 Cycle 116  Pass 1  IDiag  1:
 RMSU=  2.20D-09    CP:  1.00D+00 -5.36D-01 -2.00D-01  2.84D+00  1.26D+00
                    CP: -2.60D-01  2.44D+00 -7.62D-02  6.78D-01  2.09D+00
                    CP:  2.37D+00  1.54D-03  2.14D+00 -2.73D-03  5.46D-07
 E= -2838.27605842275     Delta-E=       -0.000080870033 Rises=F Damp=F
 DIIS: error= 1.98D-04 at cycle 116 NSaved=  20.
 NSaved=20 IEnMin= 4 EnMin= -2838.27669002221     IErMin=18 ErrMin= 1.28D-04
 ErrMax= 1.98D-04  0.00D+00 EMaxC= 1.00D-01 BMatC= 2.92D-05 BMatP= 5.28D-06
 IDIUse=3 WtCom= 9.98D-01 WtEn= 1.58D-03
 Coeff-Com: -0.190D+00-0.298D+00-0.328D-01 0.574D+00-0.455D+00 0.124D-01
 Coeff-Com:  0.230D+00-0.214D-01-0.540D-01-0.203D-01-0.788D+00 0.334D+01
 Coeff-Com: -0.273D+01 0.676D+00 0.287D+00 0.114D+00-0.351D+00 0.706D+00
 Coeff-Com: -0.353D+00 0.355D+00
 Coeff-En:   0.000D+00 0.000D+00 0.000D+00 0.000D+00 0.000D+00 0.000D+00
 Coeff-En:   0.000D+00 0.000D+00 0.000D+00 0.000D+00 0.000D+00 0.000D+00
 Coeff-En:   0.000D+00 0.000D+00 0.000D+00 0.000D+00 0.000D+00 0.000D+00
 Coeff-En:   0.000D+00 0.100D+01
 Coeff:     -0.189D+00-0.297D+00-0.327D-01 0.573D+00-0.454D+00 0.124D-01
 Coeff:      0.229D+00-0.214D-01-0.539D-01-0.202D-01-0.787D+00 0.333D+01
 Coeff:     -0.272D+01 0.675D+00 0.287D+00 0.113D+00-0.351D+00 0.705D+00
 Coeff:     -0.352D+00 0.356D+00
 Gap=     0.128 Goal=   None    Shift=    0.000
 Gap=     0.117 Goal=   None    Shift=    0.000
 RMSDP=9.52D-05 MaxDP=1.01D-02 DE=-8.09D-05 OVMax= 2.28D-02

 Cycle 117  Pass 1  IDiag  1:
 RMSU=  1.23D-07    CP:  1.00D+00  1.62D+00  2.31D-01 -2.91D+00  1.36D+00
                    CP:  2.60D+00 -3.00D+00  3.00D+00  1.44D+00 -2.97D+00
                    CP:  2.98D+00  4.85D-02 -2.92D-01  2.03D+00  1.20D-02
                    CP:  2.94D-01
 E= -2838.27602292030     Delta-E=        0.000035502458 Rises=F Damp=F
 DIIS: error= 2.26D-04 at cycle 117 NSaved=  20.
 NSaved=20 IEnMin= 4 EnMin= -2838.27669002221     IErMin=18 ErrMin= 1.28D-04
 ErrMax= 2.26D-04  0.00D+00 EMaxC= 1.00D-01 BMatC= 3.13D-05 BMatP= 5.28D-06
 IDIUse=3 WtCom= 9.98D-01 WtEn= 1.58D-03
 Rare condition: small coef for last iteration:  0.000D+00
 Coeff-Com: -0.328D+00-0.600D+00-0.895D-01 0.907D+00-0.716D+00 0.837D+00
 Coeff-Com: -0.192D+00-0.507D-01 0.203D-01-0.109D-01-0.746D+00 0.347D+01
 Coeff-Com: -0.292D+01 0.615D+00 0.286D+00 0.442D+00-0.755D+00 0.676D+00
 Coeff-Com:  0.251D+00-0.102D+00
 Coeff-En:   0.000D+00 0.000D+00 0.000D+00 0.000D+00 0.000D+00 0.000D+00
 Coeff-En:   0.000D+00 0.000D+00 0.000D+00 0.000D+00 0.000D+00 0.000D+00
 Coeff-En:   0.000D+00 0.000D+00 0.000D+00 0.000D+00 0.000D+00 0.000D+00
 Coeff-En:   0.000D+00 0.100D+01
 Coeff:     -0.328D+00-0.600D+00-0.895D-01 0.907D+00-0.716D+00 0.837D+00
 Coeff:     -0.192D+00-0.507D-01 0.203D-01-0.109D-01-0.746D+00 0.347D+01
 Coeff:     -0.292D+01 0.615D+00 0.286D+00 0.442D+00-0.755D+00 0.676D+00
 Coeff:      0.251D+00-0.102D+00
 Gap=     0.127 Goal=   None    Shift=    0.000
 Gap=     0.118 Goal=   None    Shift=    0.000
 RMSDP=8.59D-05 MaxDP=1.10D-02 DE= 3.55D-05 OVMax= 2.26D-02

 Cycle 118  Pass 1  IDiag  1:
 RMSU=  6.62D-08    CP:  1.00D+00  3.00D+00  8.44D-01 -3.00D+00  2.44D+00
                    CP:  3.00D+00 -3.00D+00  3.00D+00  3.00D+00 -2.81D+00
                    CP:  3.00D+00  3.00D+00  2.87D-01  6.15D-01  2.40D+00
                    CP:  7.44D-02  4.77D-01
 E= -2838.27597886043     Delta-E=        0.000044059864 Rises=F Damp=F
 DIIS: error= 2.75D-04 at cycle 118 NSaved=  20.
 NSaved=20 IEnMin= 4 EnMin= -2838.27669002221     IErMin=18 ErrMin= 1.28D-04
 ErrMax= 2.75D-04  0.00D+00 EMaxC= 1.00D-01 BMatC= 4.61D-05 BMatP= 5.28D-06
 IDIUse=3 WtCom= 9.98D-01 WtEn= 1.58D-03
 Rare condition: small coef for last iteration:  0.000D+00
 Coeff-Com: -0.340D-01 0.294D+00 0.143D+00-0.837D+00 0.437D+00-0.114D+01
 Coeff-Com:  0.104D+01 0.342D-01-0.857D-01-0.132D+00-0.793D+00 0.287D+01
 Coeff-Com: -0.210D+01 0.521D+00 0.318D+00-0.293D+00 0.203D+00 0.653D+00
 Coeff-Com:  0.114D+01-0.124D+01
 Coeff-En:   0.000D+00 0.000D+00 0.000D+00 0.000D+00 0.000D+00 0.000D+00
 Coeff-En:   0.000D+00 0.000D+00 0.000D+00 0.000D+00 0.000D+00 0.000D+00
 Coeff-En:   0.000D+00 0.000D+00 0.000D+00 0.000D+00 0.000D+00 0.000D+00
 Coeff-En:   0.000D+00 0.100D+01
 Coeff:     -0.340D-01 0.294D+00 0.143D+00-0.837D+00 0.437D+00-0.114D+01
 Coeff:      0.104D+01 0.342D-01-0.857D-01-0.132D+00-0.793D+00 0.287D+01
 Coeff:     -0.210D+01 0.521D+00 0.318D+00-0.293D+00 0.203D+00 0.653D+00
 Coeff:      0.114D+01-0.124D+01
 Gap=     0.127 Goal=   None    Shift=    0.000
 Gap=     0.117 Goal=   None    Shift=    0.000
 RMSDP=1.79D-04 MaxDP=2.11D-02 DE= 4.41D-05 OVMax= 4.55D-02

 Cycle 119  Pass 1  IDiag  1:
 RMSU=  1.18D-08    CP:  1.00D+00 -5.35D-01 -2.02D-01  2.86D+00  1.23D+00
                    CP: -2.32D-01  2.56D+00 -2.77D-01  9.88D-01  2.55D+00
                    CP:  3.00D+00  2.45D-03  3.00D+00 -7.55D-03  1.09D-06
                    CP:  2.47D+00 -3.56D-05  1.21D-02
 E= -2838.27605852762     Delta-E=       -0.000079667191 Rises=F Damp=F
 DIIS: error= 1.97D-04 at cycle 119 NSaved=  20.
 NSaved=20 IEnMin= 4 EnMin= -2838.27669002221     IErMin=18 ErrMin= 1.28D-04
 ErrMax= 1.97D-04  0.00D+00 EMaxC= 1.00D-01 BMatC= 2.91D-05 BMatP= 5.28D-06
 IDIUse=3 WtCom= 9.98D-01 WtEn= 1.58D-03
 Coeff-Com: -0.198D+00-0.311D+00-0.353D-01 0.586D+00-0.463D+00 0.486D-01
 Coeff-Com:  0.212D+00-0.229D-01-0.499D-01-0.174D-01-0.782D+00 0.334D+01
 Coeff-Com: -0.273D+01 0.672D+00 0.286D+00 0.132D+00-0.371D+00 0.705D+00
 Coeff-Com: -0.343D+00 0.348D+00
 Coeff-En:   0.000D+00 0.000D+00 0.000D+00 0.000D+00 0.000D+00 0.000D+00
 Coeff-En:   0.000D+00 0.000D+00 0.000D+00 0.000D+00 0.000D+00 0.000D+00
 Coeff-En:   0.000D+00 0.000D+00 0.000D+00 0.000D+00 0.000D+00 0.000D+00
 Coeff-En:   0.000D+00 0.100D+01
 Coeff:     -0.198D+00-0.310D+00-0.352D-01 0.585D+00-0.462D+00 0.486D-01
 Coeff:      0.212D+00-0.229D-01-0.498D-01-0.173D-01-0.781D+00 0.333D+01
 Coeff:     -0.273D+01 0.671D+00 0.285D+00 0.132D+00-0.370D+00 0.704D+00
 Coeff:     -0.342D+00 0.349D+00
 Gap=     0.128 Goal=   None    Shift=    0.000
 Gap=     0.117 Goal=   None    Shift=    0.000
 RMSDP=9.83D-05 MaxDP=1.06D-02 DE=-7.97D-05 OVMax= 2.37D-02

 Cycle 120  Pass 1  IDiag  1:
 RMSU=  4.01D-08    CP:  1.00D+00  1.68D+00  2.57D-01 -3.00D+00  1.18D+00
                    CP:  3.00D+00 -3.00D+00  3.00D+00  2.03D+00 -3.00D+00
                    CP:  3.00D+00  1.25D-01 -7.08D-01  2.84D+00  3.41D-01
                    CP:  6.29D-01  1.73D+00  4.10D-01  5.24D-01
 E= -2838.27602124977     Delta-E=        0.000037277852 Rises=F Damp=F
 DIIS: error= 2.28D-04 at cycle 120 NSaved=  20.
 NSaved=20 IEnMin= 4 EnMin= -2838.27669002221     IErMin=18 ErrMin= 1.28D-04
 ErrMax= 2.28D-04  0.00D+00 EMaxC= 1.00D-01 BMatC= 3.18D-05 BMatP= 5.28D-06
 IDIUse=3 WtCom= 9.98D-01 WtEn= 1.58D-03
 Rare condition: small coef for last iteration:  0.000D+00
 Coeff-Com: -0.327D+00-0.594D+00-0.883D-01 0.898D+00-0.708D+00 0.821D+00
 Coeff-Com: -0.183D+00-0.503D-01 0.194D-01-0.953D-02-0.744D+00 0.347D+01
 Coeff-Com: -0.291D+01 0.615D+00 0.285D+00 0.439D+00-0.749D+00 0.677D+00
 Coeff-Com:  0.251D+00-0.108D+00
 Coeff-En:   0.000D+00 0.000D+00 0.000D+00 0.000D+00 0.000D+00 0.000D+00
 Coeff-En:   0.000D+00 0.000D+00 0.000D+00 0.000D+00 0.000D+00 0.000D+00
 Coeff-En:   0.000D+00 0.000D+00 0.000D+00 0.000D+00 0.000D+00 0.000D+00
 Coeff-En:   0.000D+00 0.100D+01
 Coeff:     -0.327D+00-0.594D+00-0.883D-01 0.898D+00-0.708D+00 0.821D+00
 Coeff:     -0.183D+00-0.503D-01 0.194D-01-0.953D-02-0.744D+00 0.347D+01
 Coeff:     -0.291D+01 0.615D+00 0.285D+00 0.439D+00-0.749D+00 0.677D+00
 Coeff:      0.251D+00-0.108D+00
 Gap=     0.127 Goal=   None    Shift=    0.000
 Gap=     0.118 Goal=   None    Shift=    0.000
 RMSDP=8.07D-05 MaxDP=1.03D-02 DE= 3.73D-05 OVMax= 2.12D-02

 Cycle 121  Pass 1  IDiag  1:
 Restarting incremental Fock formation.
 E= -2838.27597984297     Delta-E=        0.000041406802 Rises=F Damp=F
 DIIS: error= 2.74D-04 at cycle 121 NSaved=  20.
 NSaved=20 IEnMin= 4 EnMin= -2838.27669002221     IErMin=18 ErrMin= 1.28D-04
 ErrMax= 2.74D-04  0.00D+00 EMaxC= 1.00D-01 BMatC= 4.57D-05 BMatP= 5.28D-06
 IDIUse=3 WtCom= 9.98D-01 WtEn= 1.58D-03
 Rare condition: small coef for last iteration:  0.000D+00
 Coeff-Com: -0.342D-01 0.292D+00 0.142D+00-0.830D+00 0.432D+00-0.114D+01
 Coeff-Com:  0.104D+01 0.343D-01-0.850D-01-0.134D+00-0.795D+00 0.287D+01
 Coeff-Com: -0.210D+01 0.522D+00 0.320D+00-0.293D+00 0.202D+00 0.652D+00
 Coeff-Com:  0.121D+01-0.131D+01
 Coeff-En:   0.000D+00 0.000D+00 0.000D+00 0.000D+00 0.000D+00 0.000D+00
 Coeff-En:   0.000D+00 0.000D+00 0.000D+00 0.000D+00 0.000D+00 0.000D+00
 Coeff-En:   0.000D+00 0.000D+00 0.000D+00 0.000D+00 0.000D+00 0.000D+00
 Coeff-En:   0.000D+00 0.100D+01
 Coeff:     -0.342D-01 0.292D+00 0.142D+00-0.830D+00 0.432D+00-0.114D+01
 Coeff:      0.104D+01 0.343D-01-0.850D-01-0.134D+00-0.795D+00 0.287D+01
 Coeff:     -0.210D+01 0.522D+00 0.320D+00-0.293D+00 0.202D+00 0.652D+00
 Coeff:      0.121D+01-0.131D+01
 Gap=     0.127 Goal=   None    Shift=    0.000
 Gap=     0.117 Goal=   None    Shift=    0.000
 RMSDP=1.77D-04 MaxDP=2.08D-02 DE= 4.14D-05 OVMax= 4.49D-02

 Cycle 122  Pass 1  IDiag  1:
 RMSU=  1.77D-04    CP:  1.00D+00
 E= -2838.27605841322     Delta-E=       -0.000078570254 Rises=F Damp=F
 DIIS: error= 1.97D-04 at cycle 122 NSaved=  20.
 NSaved=20 IEnMin= 4 EnMin= -2838.27669002221     IErMin=18 ErrMin= 1.28D-04
 ErrMax= 1.97D-04  0.00D+00 EMaxC= 1.00D-01 BMatC= 2.90D-05 BMatP= 5.28D-06
 IDIUse=3 WtCom= 9.98D-01 WtEn= 1.58D-03
 Coeff-Com: -0.205D+00-0.321D+00-0.370D-01 0.595D+00-0.468D+00 0.760D-01
 Coeff-Com:  0.199D+00-0.241D-01-0.466D-01-0.148D-01-0.777D+00 0.334D+01
 Coeff-Com: -0.274D+01 0.670D+00 0.285D+00 0.147D+00-0.386D+00 0.704D+00
 Coeff-Com: -0.336D+00 0.343D+00
 Coeff-En:   0.000D+00 0.000D+00 0.000D+00 0.000D+00 0.000D+00 0.000D+00
 Coeff-En:   0.000D+00 0.000D+00 0.000D+00 0.000D+00 0.000D+00 0.000D+00
 Coeff-En:   0.000D+00 0.000D+00 0.000D+00 0.000D+00 0.000D+00 0.000D+00
 Coeff-En:   0.000D+00 0.100D+01
 Coeff:     -0.205D+00-0.320D+00-0.370D-01 0.594D+00-0.467D+00 0.759D-01
 Coeff:      0.199D+00-0.240D-01-0.465D-01-0.148D-01-0.776D+00 0.333D+01
 Coeff:     -0.273D+01 0.669D+00 0.284D+00 0.147D+00-0.385D+00 0.703D+00
 Coeff:     -0.335D+00 0.344D+00
 Gap=     0.127 Goal=   None    Shift=    0.000
 Gap=     0.117 Goal=   None    Shift=    0.000
 RMSDP=1.00D-04 MaxDP=1.09D-02 DE=-7.86D-05 OVMax= 2.43D-02

 Cycle 123  Pass 1  IDiag  1:
 RMSU=  1.16D-05    CP:  1.00D+00  4.38D-01
 E= -2838.27601997661     Delta-E=        0.000038436611 Rises=F Damp=F
 DIIS: error= 2.29D-04 at cycle 123 NSaved=  20.
 NSaved=20 IEnMin= 4 EnMin= -2838.27669002221     IErMin=18 ErrMin= 1.28D-04
 ErrMax= 2.29D-04  0.00D+00 EMaxC= 1.00D-01 BMatC= 3.22D-05 BMatP= 5.28D-06
 IDIUse=3 WtCom= 9.98D-01 WtEn= 1.58D-03
 Rare condition: small coef for last iteration:  0.000D+00
 Coeff-Com: -0.327D+00-0.590D+00-0.872D-01 0.891D+00-0.702D+00 0.810D+00
 Coeff-Com: -0.177D+00-0.500D-01 0.190D-01-0.832D-02-0.742D+00 0.346D+01
 Coeff-Com: -0.291D+01 0.615D+00 0.285D+00 0.437D+00-0.744D+00 0.677D+00
 Coeff-Com:  0.251D+00-0.111D+00
 Coeff-En:   0.000D+00 0.000D+00 0.000D+00 0.000D+00 0.000D+00 0.000D+00
 Coeff-En:   0.000D+00 0.000D+00 0.000D+00 0.000D+00 0.000D+00 0.000D+00
 Coeff-En:   0.000D+00 0.000D+00 0.000D+00 0.000D+00 0.000D+00 0.000D+00
 Coeff-En:   0.000D+00 0.100D+01
 Coeff:     -0.327D+00-0.590D+00-0.872D-01 0.891D+00-0.702D+00 0.810D+00
 Coeff:     -0.177D+00-0.500D-01 0.190D-01-0.832D-02-0.742D+00 0.346D+01
 Coeff:     -0.291D+01 0.615D+00 0.285D+00 0.437D+00-0.744D+00 0.677D+00
 Coeff:      0.251D+00-0.111D+00
 Gap=     0.127 Goal=   None    Shift=    0.000
 Gap=     0.118 Goal=   None    Shift=    0.000
 RMSDP=7.69D-05 MaxDP=9.78D-03 DE= 3.84D-05 OVMax= 2.02D-02

 Cycle 124  Pass 1  IDiag  1:
 RMSU=  1.61D-07    CP:  1.00D+00  8.21D-03 -1.05D-02
 E= -2838.27598055740     Delta-E=        0.000039419208 Rises=F Damp=F
 DIIS: error= 2.73D-04 at cycle 124 NSaved=  20.
 NSaved=20 IEnMin= 4 EnMin= -2838.27669002221     IErMin=18 ErrMin= 1.28D-04
 ErrMax= 2.73D-04  0.00D+00 EMaxC= 1.00D-01 BMatC= 4.54D-05 BMatP= 5.28D-06
 IDIUse=3 WtCom= 9.98D-01 WtEn= 1.58D-03
 Rare condition: small coef for last iteration:  0.000D+00
 Coeff-Com: -0.349D-01 0.289D+00 0.141D+00-0.821D+00 0.426D+00-0.113D+01
 Coeff-Com:  0.103D+01 0.342D-01-0.841D-01-0.135D+00-0.796D+00 0.288D+01
 Coeff-Com: -0.211D+01 0.523D+00 0.322D+00-0.291D+00 0.199D+00 0.651D+00
 Coeff-Com:  0.127D+01-0.136D+01
 Coeff-En:   0.000D+00 0.000D+00 0.000D+00 0.000D+00 0.000D+00 0.000D+00
 Coeff-En:   0.000D+00 0.000D+00 0.000D+00 0.000D+00 0.000D+00 0.000D+00
 Coeff-En:   0.000D+00 0.000D+00 0.000D+00 0.000D+00 0.000D+00 0.000D+00
 Coeff-En:   0.000D+00 0.100D+01
 Coeff:     -0.349D-01 0.289D+00 0.141D+00-0.821D+00 0.426D+00-0.113D+01
 Coeff:      0.103D+01 0.342D-01-0.841D-01-0.135D+00-0.796D+00 0.288D+01
 Coeff:     -0.211D+01 0.523D+00 0.322D+00-0.291D+00 0.199D+00 0.651D+00
 Coeff:      0.127D+01-0.136D+01
 Gap=     0.127 Goal=   None    Shift=    0.000
 Gap=     0.117 Goal=   None    Shift=    0.000
 RMSDP=1.75D-04 MaxDP=2.06D-02 DE= 3.94D-05 OVMax= 4.44D-02

 Cycle 125  Pass 1  IDiag  1:
 RMSU=  5.01D-08    CP:  1.00D+00  9.96D-01  8.66D-03  8.65D-03
 E= -2838.27605819039     Delta-E=       -0.000077632982 Rises=F Damp=F
 DIIS: error= 1.97D-04 at cycle 125 NSaved=  20.
 NSaved=20 IEnMin= 4 EnMin= -2838.27669002221     IErMin=18 ErrMin= 1.28D-04
 ErrMax= 1.97D-04  0.00D+00 EMaxC= 1.00D-01 BMatC= 2.90D-05 BMatP= 5.28D-06
 IDIUse=3 WtCom= 9.98D-01 WtEn= 1.58D-03
 Coeff-Com: -0.211D+00-0.327D+00-0.381D-01 0.600D+00-0.470D+00 0.962D-01
 Coeff-Com:  0.190D+00-0.248D-01-0.440D-01-0.127D-01-0.774D+00 0.334D+01
 Coeff-Com: -0.274D+01 0.667D+00 0.284D+00 0.158D+00-0.397D+00 0.702D+00
 Coeff-Com: -0.331D+00 0.339D+00
 Coeff-En:   0.000D+00 0.000D+00 0.000D+00 0.000D+00 0.000D+00 0.000D+00
 Coeff-En:   0.000D+00 0.000D+00 0.000D+00 0.000D+00 0.000D+00 0.000D+00
 Coeff-En:   0.000D+00 0.000D+00 0.000D+00 0.000D+00 0.000D+00 0.000D+00
 Coeff-En:   0.000D+00 0.100D+01
 Coeff:     -0.211D+00-0.327D+00-0.380D-01 0.599D+00-0.470D+00 0.960D-01
 Coeff:      0.190D+00-0.248D-01-0.440D-01-0.126D-01-0.772D+00 0.333D+01
 Coeff:     -0.274D+01 0.666D+00 0.284D+00 0.158D+00-0.396D+00 0.701D+00
 Coeff:     -0.330D+00 0.340D+00
 Gap=     0.127 Goal=   None    Shift=    0.000
 Gap=     0.117 Goal=   None    Shift=    0.000
 RMSDP=1.01D-04 MaxDP=1.11D-02 DE=-7.76D-05 OVMax= 2.47D-02

 Cycle 126  Pass 1  IDiag  1:
 RMSU=  1.39D-08    CP:  1.00D+00  4.28D-01  9.35D-01  1.42D+00 -7.40D-02
 E= -2838.27601902473     Delta-E=        0.000039165660 Rises=F Damp=F
 DIIS: error= 2.30D-04 at cycle 126 NSaved=  20.
 NSaved=20 IEnMin= 4 EnMin= -2838.27669002221     IErMin=18 ErrMin= 1.28D-04
 ErrMax= 2.30D-04  0.00D+00 EMaxC= 1.00D-01 BMatC= 3.25D-05 BMatP= 5.28D-06
 IDIUse=3 WtCom= 9.98D-01 WtEn= 1.58D-03
 Rare condition: small coef for last iteration:  0.000D+00
 Coeff-Com: -0.327D+00-0.586D+00-0.863D-01 0.885D+00-0.696D+00 0.802D+00
 Coeff-Com: -0.171D+00-0.498D-01 0.189D-01-0.735D-02-0.741D+00 0.346D+01
 Coeff-Com: -0.291D+01 0.615D+00 0.285D+00 0.436D+00-0.741D+00 0.677D+00
 Coeff-Com:  0.250D+00-0.113D+00
 Coeff-En:   0.000D+00 0.000D+00 0.000D+00 0.000D+00 0.000D+00 0.000D+00
 Coeff-En:   0.000D+00 0.000D+00 0.000D+00 0.000D+00 0.000D+00 0.000D+00
 Coeff-En:   0.000D+00 0.000D+00 0.000D+00 0.000D+00 0.000D+00 0.000D+00
 Coeff-En:   0.000D+00 0.100D+01
 Coeff:     -0.327D+00-0.586D+00-0.863D-01 0.885D+00-0.696D+00 0.802D+00
 Coeff:     -0.171D+00-0.498D-01 0.189D-01-0.735D-02-0.741D+00 0.346D+01
 Coeff:     -0.291D+01 0.615D+00 0.285D+00 0.436D+00-0.741D+00 0.677D+00
 Coeff:      0.250D+00-0.113D+00
 Gap=     0.127 Goal=   None    Shift=    0.000
 Gap=     0.118 Goal=   None    Shift=    0.000
 RMSDP=7.41D-05 MaxDP=9.42D-03 DE= 3.92D-05 OVMax= 1.94D-02

 Cycle 127  Pass 1  IDiag  1:
 RMSU=  4.60D-09    CP:  1.00D+00  1.41D-02 -2.79D-02  1.95D+00  1.23D-02
                    CP:  2.16D-02
 E= -2838.27598104092     Delta-E=        0.000037983802 Rises=F Damp=F
 DIIS: error= 2.72D-04 at cycle 127 NSaved=  20.
 NSaved=20 IEnMin= 4 EnMin= -2838.27669002221     IErMin=18 ErrMin= 1.28D-04
 ErrMax= 2.72D-04  0.00D+00 EMaxC= 1.00D-01 BMatC= 4.53D-05 BMatP= 5.28D-06
 IDIUse=3 WtCom= 9.98D-01 WtEn= 1.58D-03
 Rare condition: small coef for last iteration:  0.000D+00
 Coeff-Com: -0.357D-01 0.286D+00 0.140D+00-0.812D+00 0.420D+00-0.113D+01
 Coeff-Com:  0.103D+01 0.340D-01-0.832D-01-0.137D+00-0.797D+00 0.288D+01
 Coeff-Com: -0.211D+01 0.524D+00 0.323D+00-0.288D+00 0.196D+00 0.650D+00
 Coeff-Com:  0.131D+01-0.141D+01
 Coeff-En:   0.000D+00 0.000D+00 0.000D+00 0.000D+00 0.000D+00 0.000D+00
 Coeff-En:   0.000D+00 0.000D+00 0.000D+00 0.000D+00 0.000D+00 0.000D+00
 Coeff-En:   0.000D+00 0.000D+00 0.000D+00 0.000D+00 0.000D+00 0.000D+00
 Coeff-En:   0.000D+00 0.100D+01
 Coeff:     -0.357D-01 0.286D+00 0.140D+00-0.812D+00 0.420D+00-0.113D+01
 Coeff:      0.103D+01 0.340D-01-0.832D-01-0.137D+00-0.797D+00 0.288D+01
 Coeff:     -0.211D+01 0.524D+00 0.323D+00-0.288D+00 0.196D+00 0.650D+00
 Coeff:      0.131D+01-0.141D+01
 Gap=     0.127 Goal=   None    Shift=    0.000
 Gap=     0.117 Goal=   None    Shift=    0.000
 RMSDP=1.73D-04 MaxDP=2.04D-02 DE= 3.80D-05 OVMax= 4.40D-02

 Cycle 128  Pass 1  IDiag  1:
 RMSU=  8.69D-09    CP:  1.00D+00  9.92D-01  1.63D-02  4.24D-02  1.98D+00
                    CP: -2.01D-01 -1.56D+00
 E= -2838.27605790137     Delta-E=       -0.000076860448 Rises=F Damp=F
 DIIS: error= 1.97D-04 at cycle 128 NSaved=  20.
 NSaved=20 IEnMin= 4 EnMin= -2838.27669002221     IErMin=18 ErrMin= 1.28D-04
 ErrMax= 1.97D-04  0.00D+00 EMaxC= 1.00D-01 BMatC= 2.90D-05 BMatP= 5.28D-06
 IDIUse=3 WtCom= 9.98D-01 WtEn= 1.58D-03
 Coeff-Com: -0.216D+00-0.332D+00-0.387D-01 0.602D+00-0.471D+00 0.111D+00
 Coeff-Com:  0.184D+00-0.254D-01-0.420D-01-0.108D-01-0.771D+00 0.334D+01
 Coeff-Com: -0.275D+01 0.665D+00 0.284D+00 0.167D+00-0.405D+00 0.701D+00
 Coeff-Com: -0.327D+00 0.335D+00
 Coeff-En:   0.000D+00 0.000D+00 0.000D+00 0.000D+00 0.000D+00 0.000D+00
 Coeff-En:   0.000D+00 0.000D+00 0.000D+00 0.000D+00 0.000D+00 0.000D+00
 Coeff-En:   0.000D+00 0.000D+00 0.000D+00 0.000D+00 0.000D+00 0.000D+00
 Coeff-En:   0.000D+00 0.100D+01
 Coeff:     -0.216D+00-0.332D+00-0.386D-01 0.601D+00-0.470D+00 0.110D+00
 Coeff:      0.184D+00-0.253D-01-0.419D-01-0.108D-01-0.769D+00 0.333D+01
 Coeff:     -0.274D+01 0.664D+00 0.283D+00 0.166D+00-0.404D+00 0.700D+00
 Coeff:     -0.326D+00 0.336D+00
 Gap=     0.127 Goal=   None    Shift=    0.000
 Gap=     0.117 Goal=   None    Shift=    0.000
 RMSDP=1.01D-04 MaxDP=1.12D-02 DE=-7.69D-05 OVMax= 2.48D-02

 >>>>>>>>>> Convergence criterion not met.
 Error on total polarization charges =  0.02909
 SCF Done:  E(UB3LYP) =  -2838.27605790     A.U. after  129 cycles
            NFock=128  Conv=0.10D-03     -V/T= 2.0031
 <Sx>= 0.0000 <Sy>= 0.0000 <Sz>= 1.0000 <S**2>= 2.0069 S= 1.0023
 <L.S>= 0.000000000000E+00
 KE= 2.829614241774D+03 PE=-1.296127069797D+04 EE= 4.151125187706D+03
 Annihilation of the first spin contaminant:
 S**2 before annihilation     2.0069,   after     2.0000
 Convergence failure -- run terminated.
 Error termination via Lnk1e in /n/sw/g16_nehalem/g16/l502.exe at Wed Feb 28 20:47:53 2018.
 Job cpu time:       0 days  2 hours 31 minutes 22.5 seconds.
 Elapsed time:       0 days  0 hours 30 minutes 22.4 seconds.
 File lengths (MBytes):  RWF=    327 Int=      0 D2E=      0 Chk=      4 Scr=      1
