 Entering Gaussian System, Link 0=g16
 Input=glut_nitro_anion_freeze.gjf
 Output=glut_nitro_anion_freeze.out
 Initial command:
 /n/sw/g16_nehalem/g16/l1.exe "/scratch/dhuang9_glut_nitro_anion_freeze/Gau-61746.inp" -scrdir="/scratch/dhuang9_glut_nitro_anion_freeze/"
 Entering Link 1 = /n/sw/g16_nehalem/g16/l1.exe PID=     61747.
  
 Copyright (c) 1988,1990,1992,1993,1995,1998,2003,2009,2016,
            Gaussian, Inc.  All Rights Reserved.
  
 This is part of the Gaussian(R) 16 program.  It is based on
 the Gaussian(R) 09 system (copyright 2009, Gaussian, Inc.),
 the Gaussian(R) 03 system (copyright 2003, Gaussian, Inc.),
 the Gaussian(R) 98 system (copyright 1998, Gaussian, Inc.),
 the Gaussian(R) 94 system (copyright 1995, Gaussian, Inc.),
 the Gaussian 92(TM) system (copyright 1992, Gaussian, Inc.),
 the Gaussian 90(TM) system (copyright 1990, Gaussian, Inc.),
 the Gaussian 88(TM) system (copyright 1988, Gaussian, Inc.),
 the Gaussian 86(TM) system (copyright 1986, Carnegie Mellon
 University), and the Gaussian 82(TM) system (copyright 1983,
 Carnegie Mellon University). Gaussian is a federally registered
 trademark of Gaussian, Inc.
  
 This software contains proprietary and confidential information,
 including trade secrets, belonging to Gaussian, Inc.
  
 This software is provided under written license and may be
 used, copied, transmitted, or stored only in accord with that
 written license.
  
 The following legend is applicable only to US Government
 contracts under FAR:
  
                    RESTRICTED RIGHTS LEGEND
  
 Use, reproduction and disclosure by the US Government is
 subject to restrictions as set forth in subparagraphs (a)
 and (c) of the Commercial Computer Software - Restricted
 Rights clause in FAR 52.227-19.
  
 Gaussian, Inc.
 340 Quinnipiac St., Bldg. 40, Wallingford CT 06492
  
  
 ---------------------------------------------------------------
 Warning -- This program may not be used in any manner that
 competes with the business of Gaussian, Inc. or will provide
 assistance to any competitor of Gaussian, Inc.  The licensee
 of this program is prohibited from giving any competitor of
 Gaussian, Inc. access to this program.  By using this program,
 the user acknowledges that Gaussian, Inc. is engaged in the
 business of creating and licensing software in the field of
 computational chemistry and represents and warrants to the
 licensee that it is not a competitor of Gaussian, Inc. and that
 it will not use this program in any manner prohibited above.
 ---------------------------------------------------------------
  

 Cite this work as:
 Gaussian 16, Revision A.03,
 M. J. Frisch, G. W. Trucks, H. B. Schlegel, G. E. Scuseria, 
 M. A. Robb, J. R. Cheeseman, G. Scalmani, V. Barone, 
 G. A. Petersson, H. Nakatsuji, X. Li, M. Caricato, A. V. Marenich, 
 J. Bloino, B. G. Janesko, R. Gomperts, B. Mennucci, H. P. Hratchian, 
 J. V. Ortiz, A. F. Izmaylov, J. L. Sonnenberg, D. Williams-Young, 
 F. Ding, F. Lipparini, F. Egidi, J. Goings, B. Peng, A. Petrone, 
 T. Henderson, D. Ranasinghe, V. G. Zakrzewski, J. Gao, N. Rega, 
 G. Zheng, W. Liang, M. Hada, M. Ehara, K. Toyota, R. Fukuda, 
 J. Hasegawa, M. Ishida, T. Nakajima, Y. Honda, O. Kitao, H. Nakai, 
 T. Vreven, K. Throssell, J. A. Montgomery, Jr., J. E. Peralta, 
 F. Ogliaro, M. J. Bearpark, J. J. Heyd, E. N. Brothers, K. N. Kudin, 
 V. N. Staroverov, T. A. Keith, R. Kobayashi, J. Normand, 
 K. Raghavachari, A. P. Rendell, J. C. Burant, S. S. Iyengar, 
 J. Tomasi, M. Cossi, J. M. Millam, M. Klene, C. Adamo, R. Cammi, 
 J. W. Ochterski, R. L. Martin, K. Morokuma, O. Farkas, 
 J. B. Foresman, and D. J. Fox, Gaussian, Inc., Wallingford CT, 2016.
 
 ******************************************
 Gaussian 16:  ES64L-G16RevA.03 25-Dec-2016
                28-Feb-2018 
 ******************************************
 %nprocshared=4
 Will use up to    4 processors via shared memory.
 %mem=3GB
 ----------------------------------------------------------------------
 #p b3lyp empiricaldispersion=gd3bj 6-31g scrf=(pcm,solvent=water) opt 
 freq=noraman
 ----------------------------------------------------------------------
 1/18=20,19=15,26=3,38=1/1,3;
 2/9=110,12=2,17=6,18=5,40=1/2;
 3/5=1,6=6,11=2,25=1,30=1,70=2201,71=1,72=1,74=-5,124=41/1,2,3;
 4//1;
 5/5=2,38=5,53=1/2;
 6/7=2,8=2,9=2,10=2,28=1/1;
 7//1,2,3,16;
 1/18=20,19=15,26=3/3(2);
 2/9=110/2;
 99//99;
 2/9=110/2;
 3/5=1,6=6,11=2,25=1,30=1,70=2205,71=1,72=1,74=-5,124=41/1,2,3;
 4/5=5,16=3,69=1/1;
 5/5=2,38=5,53=1/2;
 7//1,2,3,16;
 1/18=20,19=15,26=3/3(-5);
 2/9=110/2;
 6/7=2,8=2,9=2,10=2,19=2,28=1/1;
 99/9=1/99;
 Leave Link    1 at Wed Feb 28 19:15:45 2018, MaxMem=   402653184 cpu:               0.4 elap:               0.2
 (Enter /n/sw/g16_nehalem/g16/l101.exe)
 -------------------------
 Glutamic Acid Nitro-Anion
 -------------------------
 Symbolic Z-matrix:
 Charge = -1 Multiplicity = 1
 C                    -3.16976   0.62334   0. 
 H                    -2.81309   1.12774  -0.87365 
 H                    -4.23976   0.62336   0. 
 C                    -2.65642   1.3493    1.2574 
 H                    -1.58642   1.34929   1.2574 
 H                    -3.01309   0.8449    2.13106 
 C                    -3.16974   2.80123   1.25741 
 H                    -4.23973   2.80124   1.25545 
 C                    -2.65869   3.52637   2.51622 
 C                    -2.65645  -0.82859   0. 
 H                    -2.03994  -1.17613   0.80252 
 O                    -2.95985   4.73118   2.71947 
 O                    -1.83911   2.82822   3.45737 
 H                    -1.60674   3.4173    4.17889 
 N                    -2.67753   3.49497   0.0585 
 H                    -1.87824   4.04652   0.29709 
 C                    -3.73492   4.36803  -0.47121 
 O                    -3.44893   5.50762  -0.92188 
 C                    -5.19767   3.8864   -0.47464 
 H                    -5.34557   3.2009   -1.2828 
 H                    -5.41431   3.39734   0.45207 
 H                    -5.84944   4.72632  -0.59557 
 N                    -2.96804  -1.62949  -0.96689 
 O                    -2.51175  -1.12006  -2.14242 
 O                    -4.32003  -1.76462  -1.02576 
 
 ITRead=  0  0  0  0  0  0  0  0  0  0  0  0  0  0  0  0  0  0  0  0
 ITRead=  0  0  0  0  0
 MicOpt= -1 -1 -1 -1 -1 -1 -1 -1 -1 -1 -1 -1 -1 -1 -1 -1 -1 -1 -1 -1
 MicOpt= -1 -1 -1 -1 -1
 NAtoms=     25 NQM=       25 NQMF=       0 NMMI=      0 NMMIF=      0
                NMic=       0 NMicF=      0.
                    Isotopes and Nuclear Properties:
 (Nuclear quadrupole moments (NQMom) in fm**2, nuclear magnetic moments (NMagM)
  in nuclear magnetons)

  Atom         1           2           3           4           5           6           7           8           9          10
 IAtWgt=          12           1           1          12           1           1          12           1          12          12
 AtmWgt=  12.0000000   1.0078250   1.0078250  12.0000000   1.0078250   1.0078250  12.0000000   1.0078250  12.0000000  12.0000000
 NucSpn=           0           1           1           0           1           1           0           1           0           0
 AtZEff=   0.0000000   0.0000000   0.0000000   0.0000000   0.0000000   0.0000000   0.0000000   0.0000000   0.0000000   0.0000000
 NQMom=    0.0000000   0.0000000   0.0000000   0.0000000   0.0000000   0.0000000   0.0000000   0.0000000   0.0000000   0.0000000
 NMagM=    0.0000000   2.7928460   2.7928460   0.0000000   2.7928460   2.7928460   0.0000000   2.7928460   0.0000000   0.0000000
 AtZNuc=   6.0000000   1.0000000   1.0000000   6.0000000   1.0000000   1.0000000   6.0000000   1.0000000   6.0000000   6.0000000

  Atom        11          12          13          14          15          16          17          18          19          20
 IAtWgt=           1          16          16           1          14           1          12          16          12           1
 AtmWgt=   1.0078250  15.9949146  15.9949146   1.0078250  14.0030740   1.0078250  12.0000000  15.9949146  12.0000000   1.0078250
 NucSpn=           1           0           0           1           2           1           0           0           0           1
 AtZEff=   0.0000000   0.0000000   0.0000000   0.0000000   0.0000000   0.0000000   0.0000000   0.0000000   0.0000000   0.0000000
 NQMom=    0.0000000   0.0000000   0.0000000   0.0000000   2.0440000   0.0000000   0.0000000   0.0000000   0.0000000   0.0000000
 NMagM=    2.7928460   0.0000000   0.0000000   2.7928460   0.4037610   2.7928460   0.0000000   0.0000000   0.0000000   2.7928460
 AtZNuc=   1.0000000   8.0000000   8.0000000   1.0000000   7.0000000   1.0000000   6.0000000   8.0000000   6.0000000   1.0000000

  Atom        21          22          23          24          25
 IAtWgt=           1           1          14          16          16
 AtmWgt=   1.0078250   1.0078250  14.0030740  15.9949146  15.9949146
 NucSpn=           1           1           2           0           0
 AtZEff=   0.0000000   0.0000000   0.0000000   0.0000000   0.0000000
 NQMom=    0.0000000   0.0000000   2.0440000   0.0000000   0.0000000
 NMagM=    2.7928460   2.7928460   0.4037610   0.0000000   0.0000000
 AtZNuc=   1.0000000   1.0000000   7.0000000   8.0000000   8.0000000
 Leave Link  101 at Wed Feb 28 19:15:46 2018, MaxMem=   402653184 cpu:               1.6 elap:               0.5
 (Enter /n/sw/g16_nehalem/g16/l103.exe)

 GradGradGradGradGradGradGradGradGradGradGradGradGradGradGradGradGradGrad
 Berny optimization.
 Initialization pass.
                           ----------------------------
                           !    Initial Parameters    !
                           ! (Angstroms and Degrees)  !
 --------------------------                            --------------------------
 ! Name  Definition              Value          Derivative Info.                !
 --------------------------------------------------------------------------------
 ! R1    R(1,2)                  1.07           estimate D2E/DX2                !
 ! R2    R(1,3)                  1.07           estimate D2E/DX2                !
 ! R3    R(1,4)                  1.54           estimate D2E/DX2                !
 ! R4    R(1,10)                 1.54           estimate D2E/DX2                !
 ! R5    R(4,5)                  1.07           estimate D2E/DX2                !
 ! R6    R(4,6)                  1.07           estimate D2E/DX2                !
 ! R7    R(4,7)                  1.54           estimate D2E/DX2                !
 ! R8    R(7,8)                  1.07           estimate D2E/DX2                !
 ! R9    R(7,9)                  1.54           estimate D2E/DX2                !
 ! R10   R(7,15)                 1.47           estimate D2E/DX2                !
 ! R11   R(9,12)                 1.2584         estimate D2E/DX2                !
 ! R12   R(9,13)                 1.43           estimate D2E/DX2                !
 ! R13   R(10,11)                1.07           estimate D2E/DX2                !
 ! R14   R(10,23)                1.2936         estimate D2E/DX2                !
 ! R15   R(13,14)                0.96           estimate D2E/DX2                !
 ! R16   R(15,16)                1.0            estimate D2E/DX2                !
 ! R17   R(15,17)                1.47           estimate D2E/DX2                !
 ! R18   R(17,18)                1.2584         estimate D2E/DX2                !
 ! R19   R(17,19)                1.54           estimate D2E/DX2                !
 ! R20   R(19,20)                1.07           estimate D2E/DX2                !
 ! R21   R(19,21)                1.07           estimate D2E/DX2                !
 ! R22   R(19,22)                1.07           estimate D2E/DX2                !
 ! R23   R(23,24)                1.36           estimate D2E/DX2                !
 ! R24   R(23,25)                1.36           estimate D2E/DX2                !
 ! A1    A(2,1,3)              109.4712         estimate D2E/DX2                !
 ! A2    A(2,1,4)              109.4713         estimate D2E/DX2                !
 ! A3    A(2,1,10)             109.4712         estimate D2E/DX2                !
 ! A4    A(3,1,4)              109.4712         estimate D2E/DX2                !
 ! A5    A(3,1,10)             109.4712         estimate D2E/DX2                !
 ! A6    A(4,1,10)             109.4712         estimate D2E/DX2                !
 ! A7    A(1,4,5)              109.4712         estimate D2E/DX2                !
 ! A8    A(1,4,6)              109.4712         estimate D2E/DX2                !
 ! A9    A(1,4,7)              109.4712         estimate D2E/DX2                !
 ! A10   A(5,4,6)              109.4712         estimate D2E/DX2                !
 ! A11   A(5,4,7)              109.4713         estimate D2E/DX2                !
 ! A12   A(6,4,7)              109.4712         estimate D2E/DX2                !
 ! A13   A(4,7,8)              109.4712         estimate D2E/DX2                !
 ! A14   A(4,7,9)              109.4712         estimate D2E/DX2                !
 ! A15   A(4,7,15)             109.4712         estimate D2E/DX2                !
 ! A16   A(8,7,9)              109.4713         estimate D2E/DX2                !
 ! A17   A(8,7,15)             109.4712         estimate D2E/DX2                !
 ! A18   A(9,7,15)             109.4712         estimate D2E/DX2                !
 ! A19   A(7,9,12)             120.2269         estimate D2E/DX2                !
 ! A20   A(7,9,13)             119.8865         estimate D2E/DX2                !
 ! A21   A(12,9,13)            119.8865         estimate D2E/DX2                !
 ! A22   A(1,10,11)            119.8865         estimate D2E/DX2                !
 ! A23   A(1,10,23)            120.2269         estimate D2E/DX2                !
 ! A24   A(11,10,23)           119.8865         estimate D2E/DX2                !
 ! A25   A(9,13,14)            109.5            estimate D2E/DX2                !
 ! A26   A(7,15,16)            109.4712         estimate D2E/DX2                !
 ! A27   A(7,15,17)            109.4712         estimate D2E/DX2                !
 ! A28   A(16,15,17)           109.4713         estimate D2E/DX2                !
 ! A29   A(15,17,18)           120.2269         estimate D2E/DX2                !
 ! A30   A(15,17,19)           119.8865         estimate D2E/DX2                !
 ! A31   A(18,17,19)           119.8865         estimate D2E/DX2                !
 ! A32   A(17,19,20)           109.4712         estimate D2E/DX2                !
 ! A33   A(17,19,21)           109.4712         estimate D2E/DX2                !
 ! A34   A(17,19,22)           109.4712         estimate D2E/DX2                !
 ! A35   A(20,19,21)           109.4713         estimate D2E/DX2                !
 ! A36   A(20,19,22)           109.4712         estimate D2E/DX2                !
 ! A37   A(21,19,22)           109.4712         estimate D2E/DX2                !
 ! A38   A(10,23,24)           109.4712         estimate D2E/DX2                !
 ! A39   A(10,23,25)           109.4712         estimate D2E/DX2                !
 ! A40   A(24,23,25)           109.4713         estimate D2E/DX2                !
 ! D1    D(2,1,4,5)            -60.0            estimate D2E/DX2                !
 ! D2    D(2,1,4,6)           -180.0            estimate D2E/DX2                !
 ! D3    D(2,1,4,7)             60.0            estimate D2E/DX2                !
 ! D4    D(3,1,4,5)            180.0            estimate D2E/DX2                !
 ! D5    D(3,1,4,6)             60.0            estimate D2E/DX2                !
 ! D6    D(3,1,4,7)            -60.0            estimate D2E/DX2                !
 ! D7    D(10,1,4,5)            60.0            estimate D2E/DX2                !
 ! D8    D(10,1,4,6)           -60.0            estimate D2E/DX2                !
 ! D9    D(10,1,4,7)          -180.0            estimate D2E/DX2                !
 ! D10   D(2,1,10,11)          119.8889         estimate D2E/DX2                !
 ! D11   D(2,1,10,23)          -60.1111         estimate D2E/DX2                !
 ! D12   D(3,1,10,11)         -120.1111         estimate D2E/DX2                !
 ! D13   D(3,1,10,23)           59.8889         estimate D2E/DX2                !
 ! D14   D(4,1,10,11)           -0.1111         estimate D2E/DX2                !
 ! D15   D(4,1,10,23)          179.8889         estimate D2E/DX2                !
 ! D16   D(1,4,7,8)             59.8889         estimate D2E/DX2                !
 ! D17   D(1,4,7,9)            179.8889         estimate D2E/DX2                !
 ! D18   D(1,4,7,15)           -60.1111         estimate D2E/DX2                !
 ! D19   D(5,4,7,8)            179.8889         estimate D2E/DX2                !
 ! D20   D(5,4,7,9)            -60.1111         estimate D2E/DX2                !
 ! D21   D(5,4,7,15)            59.8889         estimate D2E/DX2                !
 ! D22   D(6,4,7,8)            -60.1111         estimate D2E/DX2                !
 ! D23   D(6,4,7,9)             59.8889         estimate D2E/DX2                !
 ! D24   D(6,4,7,15)           179.8889         estimate D2E/DX2                !
 ! D25   D(4,7,9,12)           179.9621         estimate D2E/DX2                !
 ! D26   D(4,7,9,13)            -0.0379         estimate D2E/DX2                !
 ! D27   D(8,7,9,12)           -60.0379         estimate D2E/DX2                !
 ! D28   D(8,7,9,13)           119.9621         estimate D2E/DX2                !
 ! D29   D(15,7,9,12)           59.9621         estimate D2E/DX2                !
 ! D30   D(15,7,9,13)         -120.0379         estimate D2E/DX2                !
 ! D31   D(4,7,15,16)          -99.2238         estimate D2E/DX2                !
 ! D32   D(4,7,15,17)          140.7762         estimate D2E/DX2                !
 ! D33   D(8,7,15,16)          140.7762         estimate D2E/DX2                !
 ! D34   D(8,7,15,17)           20.7762         estimate D2E/DX2                !
 ! D35   D(9,7,15,16)           20.7762         estimate D2E/DX2                !
 ! D36   D(9,7,15,17)          -99.2238         estimate D2E/DX2                !
 ! D37   D(7,9,13,14)          179.9672         estimate D2E/DX2                !
 ! D38   D(12,9,13,14)          -0.0328         estimate D2E/DX2                !
 ! D39   D(1,10,23,24)          59.8518         estimate D2E/DX2                !
 ! D40   D(1,10,23,25)         -60.1482         estimate D2E/DX2                !
 ! D41   D(11,10,23,24)       -120.1482         estimate D2E/DX2                !
 ! D42   D(11,10,23,25)        119.8518         estimate D2E/DX2                !
 ! D43   D(7,15,17,18)         140.4073         estimate D2E/DX2                !
 ! D44   D(7,15,17,19)         -39.5927         estimate D2E/DX2                !
 ! D45   D(16,15,17,18)         20.4073         estimate D2E/DX2                !
 ! D46   D(16,15,17,19)       -159.5927         estimate D2E/DX2                !
 ! D47   D(15,17,19,20)        -77.6385         estimate D2E/DX2                !
 ! D48   D(15,17,19,21)         42.3615         estimate D2E/DX2                !
 ! D49   D(15,17,19,22)        162.3615         estimate D2E/DX2                !
 ! D50   D(18,17,19,20)        102.3615         estimate D2E/DX2                !
 ! D51   D(18,17,19,21)       -137.6385         estimate D2E/DX2                !
 ! D52   D(18,17,19,22)        -17.6385         estimate D2E/DX2                !
 --------------------------------------------------------------------------------
 Trust Radius=3.00D-01 FncErr=1.00D-07 GrdErr=1.00D-06 EigMax=2.50D+02 EigMin=1.00D-04
 Number of steps in this run=    126 maximum allowed number of steps=    150.
 GradGradGradGradGradGradGradGradGradGradGradGradGradGradGradGradGradGrad

 Leave Link  103 at Wed Feb 28 19:15:46 2018, MaxMem=   402653184 cpu:               0.1 elap:               0.1
 (Enter /n/sw/g16_nehalem/g16/l202.exe)
                          Input orientation:                          
 ---------------------------------------------------------------------
 Center     Atomic      Atomic             Coordinates (Angstroms)
 Number     Number       Type             X           Y           Z
 ---------------------------------------------------------------------
      1          6           0       -3.169761    0.623342    0.000000
      2          1           0       -2.813088    1.127740   -0.873652
      3          1           0       -4.239761    0.623355    0.000000
      4          6           0       -2.656419    1.349298    1.257405
      5          1           0       -1.586419    1.349285    1.257405
      6          1           0       -3.013092    0.844900    2.131056
      7          6           0       -3.169735    2.801230    1.257405
      8          1           0       -4.239733    2.801244    1.255449
      9          6           0       -2.658693    3.526373    2.516215
     10          6           0       -2.656446   -0.828590    0.000000
     11          1           0       -2.039936   -1.176133    0.802515
     12          8           0       -2.959852    4.731181    2.719467
     13          8           0       -1.839114    2.828224    3.457373
     14          1           0       -1.606741    3.417300    4.178894
     15          7           0       -2.677534    3.494965    0.058501
     16          1           0       -1.878245    4.046520    0.297089
     17          6           0       -3.734922    4.368027   -0.471211
     18          8           0       -3.448934    5.507622   -0.921881
     19          6           0       -5.197667    3.886400   -0.474639
     20          1           0       -5.345569    3.200905   -1.282799
     21          1           0       -5.414313    3.397337    0.452066
     22          1           0       -5.849442    4.726320   -0.595567
     23          7           0       -2.968045   -1.629486   -0.966888
     24          8           0       -2.511753   -1.120058   -2.142423
     25          8           0       -4.320033   -1.764621   -1.025762
 ---------------------------------------------------------------------
                    Distance matrix (angstroms):
                    1          2          3          4          5
     1  C    0.000000
     2  H    1.070000   0.000000
     3  H    1.070000   1.747303   0.000000
     4  C    1.540000   2.148263   2.148263   0.000000
     5  H    2.148263   2.468846   3.024610   1.070000   0.000000
     6  H    2.148263   3.024611   2.468846   1.070000   1.747303
     7  C    2.514809   2.732978   2.732977   1.540000   2.148263
     8  H    2.732077   3.060882   2.513832   2.148263   3.024610
     9  C    3.875580   4.155536   4.154351   2.514809   2.733878
    10  C    1.540000   2.148263   2.148263   2.514809   2.732977
    11  H    2.271265   2.952140   2.953205   2.639087   2.605828
    12  O    4.930913   5.090857   5.089981   3.696868   3.932069
    13  O    4.311097   4.753740   4.751630   2.773999   2.662889
    14  H    5.264256   5.676758   5.674688   3.730088   3.579413
    15  N    2.914091   2.547751   3.269575   2.457987   2.689209
    16  H    3.670752   3.280829   4.169302   2.966945   2.877923
    17  C    3.816295   3.392815   3.807816   3.641978   4.088640
    18  O    4.978352   4.426058   5.033024   4.761200   5.050744
    19  C    3.871076   3.668191   3.433704   3.986828   4.741101
    20  H    3.608814   3.298313   3.084176   4.136739   4.900238
    21  H    3.596863   3.697968   3.046130   3.528316   4.415412
    22  H    4.936579   4.716625   4.447481   5.003316   5.745540
    23  N    2.459837   2.763151   2.761780   3.730650   3.966036
    24  O    2.839435   2.598688   3.258140   4.204459   4.302641
    25  O    2.842126   3.264931   2.600204   4.204397   4.730952
                    6          7          8          9         10
     6  H    0.000000
     7  C    2.148263   0.000000
     8  H    2.469538   1.070000   0.000000
     9  C    2.732077   1.540000   2.148263   0.000000
    10  C    2.732977   3.875581   4.154352   5.029617   0.000000
    11  H    2.607034   4.159662   4.567688   5.043133   1.070000
    12  O    3.930935   2.430306   2.739727   1.258400   6.196662
    13  O    2.659119   2.571214   3.257633   1.430000   5.098407
    14  H    3.576130   3.370102   3.982299   1.970533   6.049183
    15  N    3.380966   1.470000   2.086720   2.457987   4.324002
    16  H    3.860270   2.034920   2.836511   2.409185   4.945761
    17  C    4.439060   2.400500   2.385581   3.285021   5.328224
    18  O    5.590292   3.485943   3.562389   4.046027   6.451782
    19  C    4.562098   2.879249   2.255750   3.939698   5.377194
    20  H    4.758741   3.368476   2.797374   4.664520   5.011366
    21  H    3.885847   2.458057   1.542851   3.445404   5.066425
    22  H    5.526733   3.784218   3.118227   4.615619   6.434823
    23  N    3.965082   4.961795   5.117357   6.229815   1.293600
    24  O    4.730224   5.231469   5.468825   6.581324   2.166994
    25  O    4.299208   5.232880   5.104654   6.580294   2.166994
                   11         12         13         14         15
    11  H    0.000000
    12  O    6.278321   0.000000
    13  O    4.808687   2.328477   0.000000
    14  H    5.717274   2.384769   0.960000   0.000000
    15  N    4.772760   2.947655   3.563681   4.257965   0.000000
    16  H    5.249543   2.739808   3.387207   3.941832   1.000000
    17  C    5.935744   3.303489   4.625889   5.201587   1.470000
    18  O    7.044955   3.755193   5.380387   5.812145   2.367909
    19  C    6.101772   3.990462   5.278289   5.896624   2.605481
    20  H    5.868066   4.904235   5.907906   6.622368   3.000661
    21  H    5.694371   3.597864   4.705083   5.327969   2.766656
    22  H    7.162814   4.397636   6.009311   6.519933   3.464829
    23  N    2.048829   7.351692   6.381203   7.335003   5.234102
    24  O    2.983021   7.620745   6.884699   7.833627   5.115661
    25  O    2.981234   7.620517   6.880965   7.829604   5.615753
                   16         17         18         19         20
    16  H    0.000000
    17  C    2.034921   0.000000
    18  O    2.467341   1.258400   0.000000
    19  C    3.411710   1.540000   2.426202   0.000000
    20  H    3.903005   2.148263   3.008061   1.070000   0.000000
    21  H    3.598504   2.148263   3.194330   1.070000   1.747303
    22  H    4.126666   2.148263   2.545457   1.070000   1.747303
    23  N    5.916278   6.066626   7.153432   5.969800   5.393060
    24  O    5.748571   5.865847   6.803982   5.921169   5.238337
    25  O    6.440623   6.185406   7.324966   5.745260   5.076834
                   21         22         23         24         25
    21  H    0.000000
    22  H    1.747303   0.000000
    23  N    5.767721   6.988318   0.000000
    24  O    5.963479   6.907464   1.360000   0.000000
    25  O    5.479711   6.682550   1.360000   2.220871   0.000000
 Stoichiometry    C7H11N2O5(1-)
 Framework group  C1[X(C7H11N2O5)]
 Deg. of freedom    69
 Full point group                 C1      NOp   1
 Largest Abelian subgroup         C1      NOp   1
 Largest concise Abelian subgroup C1      NOp   1
                         Standard orientation:                         
 ---------------------------------------------------------------------
 Center     Atomic      Atomic             Coordinates (Angstroms)
 Number     Number       Type             X           Y           Z
 ---------------------------------------------------------------------
      1          6           0       -1.415624   -0.151585    0.079089
      2          1           0       -1.291274    0.595714   -0.676545
      3          1           0       -1.422285    0.313300    1.042800
      4          6           0       -0.252184   -1.157637    0.002490
      5          1           0       -0.245523   -1.622521   -0.961220
      6          1           0       -0.376534   -1.904935    0.758124
      7          6           0        1.080640   -0.419051    0.225367
      8          1           0        1.073213    0.047451    1.188290
      9          6           0        2.243867   -1.425556    0.151539
     10          6           0       -2.748447   -0.890170   -0.143787
     11          1           0       -2.750241   -1.945704   -0.319131
     12          8           0        3.430184   -1.035136    0.305795
     13          8           0        1.974996   -2.808574   -0.093147
     14          1           0        2.800948   -3.297587   -0.109537
     15          7           0        1.252730    0.605819   -0.814308
     16          1           0        1.858638    0.256918   -1.529251
     17          6           0        1.842135    1.813697   -0.218882
     18          8           0        2.716117    2.467141   -0.845570
     19          6           0        1.388491    2.281029    1.176614
     20          1           0        0.440427    2.770819    1.097996
     21          1           0        1.299895    1.434425    1.824929
     22          1           0        2.109956    2.962547    1.576515
     23          7           0       -3.865857   -0.238851   -0.119746
     24          8           0       -3.854436    0.716833   -1.087288
     25          8           0       -4.021684    0.349290    1.096564
 ---------------------------------------------------------------------
 Rotational constants (GHZ):           0.9284594           0.3430717           0.2758623
 Leave Link  202 at Wed Feb 28 19:15:46 2018, MaxMem=   402653184 cpu:               0.3 elap:               0.2
 (Enter /n/sw/g16_nehalem/g16/l301.exe)
 Standard basis: 6-31G (6D, 7F)
 Ernie: Thresh=  0.10000D-02 Tol=  0.10000D-05 Strict=F.
 There are   148 symmetry adapted cartesian basis functions of A   symmetry.
 There are   148 symmetry adapted basis functions of A   symmetry.
   148 basis functions,   352 primitive gaussians,   148 cartesian basis functions
    54 alpha electrons       54 beta electrons
       nuclear repulsion energy       900.9235856304 Hartrees.
 IExCor=  402 DFT=T Ex+Corr=B3LYP ExCW=0 ScaHFX=  0.200000
 ScaDFX=  0.800000  0.720000  1.000000  0.810000 ScalE2=  1.000000  1.000000
 IRadAn=      5 IRanWt=     -1 IRanGd=            0 ICorTp=0 IEmpDi=141
 NAtoms=   25 NActive=   25 NUniq=   25 SFac= 1.00D+00 NAtFMM=   60 NAOKFM=F Big=F
 Integral buffers will be    131072 words long.
 Raffenetti 2 integral format.
 Two-electron integral symmetry is turned on.
 R6Disp:  Grimme-D3(BJ) Dispersion energy=       -0.0427732977 Hartrees.
 Nuclear repulsion after empirical dispersion term =      900.8808123327 Hartrees.
 ------------------------------------------------------------------------------
 Polarizable Continuum Model (PCM)
 =================================
 Model                : PCM.
 Atomic radii         : UFF (Universal Force Field).
 Polarization charges : Total charges.
 Charge compensation  : None.
 Solution method      : On-the-fly selection.
 Cavity type          : Scaled VdW (van der Waals Surface) (Alpha=1.100).
 Cavity algorithm     : GePol (No added spheres)
                        Default sphere list used, NSphG=   25.
                        Lebedev-Laikov grids with approx.  5.0 points / Ang**2.
                        Smoothing algorithm: York/Karplus (Gamma=1.0000).
                        Polarization charges: spherical gaussians, with
                                              point-specific exponents (IZeta= 3).
                        Self-potential: point-specific (ISelfS= 7).
                        Self-field    : sphere-specific E.n sum rule (ISelfD= 2).
 1st derivatives      : Analytical E(r).r(x)/FMM algorithm (CHGder, D1EAlg=3).
                        Cavity 1st derivative terms included.
 Solvent              : Water, Eps=  78.355300 Eps(inf)=   1.777849
 ------------------------------------------------------------------------------
 GePol: Number of generator spheres                  =      25
 GePol: Total number of spheres                      =      25
 GePol: Number of exposed spheres                    =      25 (100.00%)
 GePol: Number of points                             =    2052
 GePol: Average weight of points                     =       0.13
 GePol: Minimum weight of points                     =   0.14D-10
 GePol: Maximum weight of points                     =    0.20577
 GePol: Number of points with low weight             =     103
 GePol: Fraction of low-weight points (<1% of avg)   =       5.02%
 GePol: Cavity surface area                          =    270.071 Ang**2
 GePol: Cavity volume                                =    275.497 Ang**3
 Leave Link  301 at Wed Feb 28 19:15:47 2018, MaxMem=   402653184 cpu:               0.6 elap:               0.2
 (Enter /n/sw/g16_nehalem/g16/l302.exe)
 NPDir=0 NMtPBC=     1 NCelOv=     1 NCel=       1 NClECP=     1 NCelD=      1
         NCelK=      1 NCelE2=     1 NClLst=     1 CellRange=     0.0.
 One-electron integrals computed using PRISM.
 One-electron integral symmetry used in STVInt
 NBasis=   148 RedAO= T EigKep=  2.96D-03  NBF=   148
 NBsUse=   148 1.00D-06 EigRej= -1.00D+00 NBFU=   148
 Precomputing XC quadrature grid using
 IXCGrd= 4 IRadAn=           5 IRanWt=          -1 IRanGd=           0 AccXCQ= 0.00D+00.
 Generated NRdTot=       0 NPtTot=           0 NUsed=           0 NTot=          32
 NSgBfM=   147   147   147   147   147 MxSgAt=    25 MxSgA2=    25.
 Leave Link  302 at Wed Feb 28 19:15:49 2018, MaxMem=   402653184 cpu:               6.0 elap:               2.0
 (Enter /n/sw/g16_nehalem/g16/l303.exe)
 DipDrv:  MaxL=1.
 Leave Link  303 at Wed Feb 28 19:15:49 2018, MaxMem=   402653184 cpu:               0.6 elap:               0.3
 (Enter /n/sw/g16_nehalem/g16/l401.exe)
 ExpMin= 1.61D-01 ExpMax= 5.48D+03 ExpMxC= 8.25D+02 IAcc=3 IRadAn=         5 AccDes= 0.00D+00
 Harris functional with IExCor=  402 and IRadAn=       5 diagonalized for initial guess.
 HarFok:  IExCor=  402 AccDes= 0.00D+00 IRadAn=         5 IDoV= 1 UseB2=F ITyADJ=14
 ICtDFT=  3500011 ScaDFX=  1.000000  1.000000  1.000000  1.000000
 FoFCou: FMM=F IPFlag=           0 FMFlag=      100000 FMFlg1=           0
         NFxFlg=           0 DoJE=T BraDBF=F KetDBF=T FulRan=T
         wScrn=  0.000000 ICntrl=       500 IOpCl=  0 I1Cent=   200000004 NGrid=           0
         NMat0=    1 NMatS0=      1 NMatT0=    0 NMatD0=    1 NMtDS0=    0 NMtDT0=    0
 Petite list used in FoFCou.
 Harris En= -758.813873191015    
 JPrj=0 DoOrth=F DoCkMO=F.
 Leave Link  401 at Wed Feb 28 19:15:54 2018, MaxMem=   402653184 cpu:              11.6 elap:               4.3
 (Enter /n/sw/g16_nehalem/g16/l502.exe)
 Keep R1 ints in memory in canonical form, NReq=64695552.
 FoFCou: FMM=F IPFlag=           0 FMFlag=           0 FMFlg1=           0
         NFxFlg=           0 DoJE=F BraDBF=F KetDBF=F FulRan=T
         wScrn=  0.000000 ICntrl=       600 IOpCl=  0 I1Cent=           0 NGrid=           0
         NMat0=    1 NMatS0=  11026 NMatT0=    0 NMatD0=    1 NMtDS0=    0 NMtDT0=    0
 Symmetry not used in FoFCou.
 Two-electron integral symmetry not used.
 Closed shell SCF:
 Using DIIS extrapolation, IDIIS=  1040.
 NGot=   402653184 LenX=   341814590 LenY=   341792245
 Requested convergence on RMS density matrix=1.00D-08 within 128 cycles.
 Requested convergence on MAX density matrix=1.00D-06.
 Requested convergence on             energy=1.00D-06.
 No special actions if energy rises.

 Cycle   1  Pass 1  IDiag  1:
 Inv3:  Mode=1 IEnd=    12632112.
 Iteration    1 A*A^-1 deviation from unit magnitude is 6.55D-15 for   2034.
 Iteration    1 A*A^-1 deviation from orthogonality  is 1.84D-15 for   2022   1724.
 Iteration    1 A^-1*A deviation from unit magnitude is 6.55D-15 for    509.
 Iteration    1 A^-1*A deviation from orthogonality  is 1.70D-15 for   1635    983.
 E= -758.137203129391    
 DIIS: error= 4.64D-02 at cycle   1 NSaved=   1.
 NSaved= 1 IEnMin= 1 EnMin= -758.137203129391     IErMin= 1 ErrMin= 4.64D-02
 ErrMax= 4.64D-02  0.00D+00 EMaxC= 1.00D-01 BMatC= 5.65D-01 BMatP= 5.65D-01
 IDIUse=3 WtCom= 5.36D-01 WtEn= 4.64D-01
 Coeff-Com:  0.100D+01
 Coeff-En:   0.100D+01
 Coeff:      0.100D+01
 Gap=    -0.096 Goal=   None    Shift=    0.000
 GapD=   -0.096 DampG=0.250 DampE=0.500 DampFc=0.2500 IDamp=-1.
 Damping current iteration by 2.50D-01
 RMSDP=1.79D-02 MaxDP=4.44D-01              OVMax= 9.22D-01

 Cycle   2  Pass 1  IDiag  1:
 E= -758.264879029044     Delta-E=       -0.127675899653 Rises=F Damp=T
 DIIS: error= 2.48D-02 at cycle   2 NSaved=   2.
 NSaved= 2 IEnMin= 2 EnMin= -758.264879029044     IErMin= 2 ErrMin= 2.48D-02
 ErrMax= 2.48D-02  0.00D+00 EMaxC= 1.00D-01 BMatC= 9.06D-02 BMatP= 5.65D-01
 IDIUse=3 WtCom= 7.52D-01 WtEn= 2.48D-01
 Coeff-Com: -0.225D+00 0.122D+01
 Coeff-En:   0.247D+00 0.753D+00
 Coeff:     -0.108D+00 0.111D+01
 Gap=     0.245 Goal=   None    Shift=    0.000
 RMSDP=5.67D-03 MaxDP=1.43D-01 DE=-1.28D-01 OVMax= 8.10D-01

 Cycle   3  Pass 1  IDiag  1:
 E= -758.396141273133     Delta-E=       -0.131262244089 Rises=F Damp=F
 DIIS: error= 3.65D-02 at cycle   3 NSaved=   3.
 NSaved= 3 IEnMin= 3 EnMin= -758.396141273133     IErMin= 2 ErrMin= 2.48D-02
 ErrMax= 3.65D-02  0.00D+00 EMaxC= 1.00D-01 BMatC= 2.49D-01 BMatP= 9.06D-02
 IDIUse=2 WtCom= 0.00D+00 WtEn= 1.00D+00
 Coeff-En:   0.000D+00 0.328D+00 0.672D+00
 Coeff:      0.000D+00 0.328D+00 0.672D+00
 Gap=     0.116 Goal=   None    Shift=    0.000
 RMSDP=1.33D-02 MaxDP=2.95D-01 DE=-1.31D-01 OVMax= 9.84D-01

 Cycle   4  Pass 1  IDiag  1:
 E= -756.963777295625     Delta-E=        1.432363977508 Rises=F Damp=F
 DIIS: error= 1.06D-01 at cycle   4 NSaved=   4.
 NSaved= 4 IEnMin= 3 EnMin= -758.396141273133     IErMin= 2 ErrMin= 2.48D-02
 ErrMax= 1.06D-01  0.00D+00 EMaxC= 1.00D-01 BMatC= 1.14D+00 BMatP= 9.06D-02
 IDIUse=2 WtCom= 0.00D+00 WtEn= 1.00D+00
 EnCoef did     2 forward-backward iterations
 Coeff-En:   0.739D-01 0.000D+00 0.730D+00 0.196D+00
 Coeff:      0.739D-01 0.000D+00 0.730D+00 0.196D+00
 Gap=    -0.086 Goal=   None    Shift=    0.000
 RMSDP=1.09D-02 MaxDP=3.27D-01 DE= 1.43D+00 OVMax= 9.20D-01

 Cycle   5  Pass 1  IDiag  1:
 E= -758.392727988873     Delta-E=       -1.428950693248 Rises=F Damp=F
 DIIS: error= 4.28D-02 at cycle   5 NSaved=   5.
 NSaved= 5 IEnMin= 3 EnMin= -758.396141273133     IErMin= 2 ErrMin= 2.48D-02
 ErrMax= 4.28D-02  0.00D+00 EMaxC= 1.00D-01 BMatC= 2.39D-01 BMatP= 9.06D-02
 IDIUse=2 WtCom= 0.00D+00 WtEn= 1.00D+00
 EnCoef did     3 forward-backward iterations
 Coeff-En:   0.000D+00 0.000D+00 0.505D+00 0.442D-02 0.490D+00
 Coeff:      0.000D+00 0.000D+00 0.505D+00 0.442D-02 0.490D+00
 Gap=    -0.002 Goal=   None    Shift=    0.000
 RMSDP=1.12D-02 MaxDP=3.77D-01 DE=-1.43D+00 OVMax= 9.96D-01

 Cycle   6  Pass 1  IDiag  1:
 E= -757.426221977668     Delta-E=        0.966506011206 Rises=F Damp=F
 DIIS: error= 1.01D-01 at cycle   6 NSaved=   6.
 NSaved= 6 IEnMin= 3 EnMin= -758.396141273133     IErMin= 2 ErrMin= 2.48D-02
 ErrMax= 1.01D-01  0.00D+00 EMaxC= 1.00D-01 BMatC= 7.63D-01 BMatP= 9.06D-02
 IDIUse=2 WtCom= 0.00D+00 WtEn= 1.00D+00
 EnCoef did     1 forward-backward iterations
 Coeff-En:   0.000D+00 0.000D+00 0.472D+00 0.000D+00 0.444D+00 0.841D-01
 Coeff:      0.000D+00 0.000D+00 0.472D+00 0.000D+00 0.444D+00 0.841D-01
 Gap=    -0.043 Goal=   None    Shift=    0.000
 RMSDP=1.10D-02 MaxDP=3.40D-01 DE= 9.67D-01 OVMax= 9.83D-01

 Cycle   7  Pass 1  IDiag  1:
 E= -758.575689201324     Delta-E=       -1.149467223656 Rises=F Damp=F
 DIIS: error= 2.27D-02 at cycle   7 NSaved=   7.
 NSaved= 7 IEnMin= 7 EnMin= -758.575689201324     IErMin= 7 ErrMin= 2.27D-02
 ErrMax= 2.27D-02  0.00D+00 EMaxC= 1.00D-01 BMatC= 6.40D-02 BMatP= 9.06D-02
 IDIUse=3 WtCom= 7.73D-01 WtEn= 2.27D-01
 Coeff-Com: -0.134D+00 0.412D+00 0.255D+00-0.188D-01 0.205D+00 0.389D-01
 Coeff-Com:  0.242D+00
 Coeff-En:   0.000D+00 0.000D+00 0.000D+00 0.000D+00 0.293D+00 0.000D+00
 Coeff-En:   0.707D+00
 Coeff:     -0.104D+00 0.319D+00 0.197D+00-0.145D-01 0.225D+00 0.301D-01
 Coeff:      0.348D+00
 Gap=     0.016 Goal=   None    Shift=    0.000
 RMSDP=4.49D-03 MaxDP=1.37D-01 DE=-1.15D+00 OVMax= 4.59D-01

 Cycle   8  Pass 1  IDiag  1:
 E= -758.637574322340     Delta-E=       -0.061885121016 Rises=F Damp=F
 DIIS: error= 1.10D-02 at cycle   8 NSaved=   8.
 NSaved= 8 IEnMin= 8 EnMin= -758.637574322340     IErMin= 8 ErrMin= 1.10D-02
 ErrMax= 1.10D-02  0.00D+00 EMaxC= 1.00D-01 BMatC= 1.92D-02 BMatP= 6.40D-02
 IDIUse=3 WtCom= 8.90D-01 WtEn= 1.10D-01
 Coeff-Com: -0.819D-01 0.148D+00-0.159D-01-0.184D-02 0.233D-01-0.237D-02
 Coeff-Com:  0.366D+00 0.565D+00
 Coeff-En:   0.000D+00 0.000D+00 0.000D+00 0.000D+00 0.000D+00 0.000D+00
 Coeff-En:   0.220D+00 0.780D+00
 Coeff:     -0.729D-01 0.132D+00-0.142D-01-0.164D-02 0.207D-01-0.211D-02
 Coeff:      0.350D+00 0.588D+00
 Gap=     0.041 Goal=   None    Shift=    0.000
 RMSDP=1.11D-03 MaxDP=2.59D-02 DE=-6.19D-02 OVMax= 7.83D-02

 Cycle   9  Pass 1  IDiag  1:
 E= -758.653450929440     Delta-E=       -0.015876607100 Rises=F Damp=F
 DIIS: error= 2.87D-03 at cycle   9 NSaved=   9.
 NSaved= 9 IEnMin= 9 EnMin= -758.653450929440     IErMin= 9 ErrMin= 2.87D-03
 ErrMax= 2.87D-03  0.00D+00 EMaxC= 1.00D-01 BMatC= 1.88D-03 BMatP= 1.92D-02
 IDIUse=3 WtCom= 9.71D-01 WtEn= 2.87D-02
 Coeff-Com: -0.344D-01 0.662D-01-0.321D-01 0.661D-02-0.409D-01-0.787D-02
 Coeff-Com:  0.198D+00 0.368D+00 0.476D+00
 Coeff-En:   0.000D+00 0.000D+00 0.000D+00 0.000D+00 0.000D+00 0.000D+00
 Coeff-En:   0.000D+00 0.000D+00 0.100D+01
 Coeff:     -0.334D-01 0.643D-01-0.312D-01 0.642D-02-0.397D-01-0.764D-02
 Coeff:      0.193D+00 0.357D+00 0.491D+00
 Gap=     0.048 Goal=   None    Shift=    0.000
 RMSDP=3.88D-04 MaxDP=7.81D-03 DE=-1.59D-02 OVMax= 2.42D-02

 Cycle  10  Pass 1  IDiag  1:
 E= -758.654125237263     Delta-E=       -0.000674307823 Rises=F Damp=F
 DIIS: error= 2.99D-03 at cycle  10 NSaved=  10.
 NSaved=10 IEnMin=10 EnMin= -758.654125237263     IErMin= 9 ErrMin= 2.87D-03
 ErrMax= 2.99D-03  0.00D+00 EMaxC= 1.00D-01 BMatC= 1.09D-03 BMatP= 1.88D-03
 IDIUse=3 WtCom= 9.71D-01 WtEn= 2.87D-02
 Coeff-Com: -0.104D-02 0.418D-02-0.919D-02 0.131D-02-0.316D-01 0.314D-02
 Coeff-Com:  0.701D-01 0.570D-01 0.311D+00 0.595D+00
 Coeff-En:   0.000D+00 0.000D+00 0.000D+00 0.000D+00 0.000D+00 0.000D+00
 Coeff-En:   0.000D+00 0.000D+00 0.307D+00 0.693D+00
 Coeff:     -0.101D-02 0.406D-02-0.893D-02 0.127D-02-0.307D-01 0.304D-02
 Coeff:      0.681D-01 0.554D-01 0.311D+00 0.598D+00
 Gap=     0.051 Goal=   None    Shift=    0.000
 RMSDP=1.70D-04 MaxDP=3.37D-03 DE=-6.74D-04 OVMax= 8.40D-03

 Cycle  11  Pass 1  IDiag  1:
 E= -758.654815570719     Delta-E=       -0.000690333456 Rises=F Damp=F
 DIIS: error= 1.86D-03 at cycle  11 NSaved=  11.
 NSaved=11 IEnMin=11 EnMin= -758.654815570719     IErMin=11 ErrMin= 1.86D-03
 ErrMax= 1.86D-03  0.00D+00 EMaxC= 1.00D-01 BMatC= 3.83D-04 BMatP= 1.09D-03
 IDIUse=3 WtCom= 9.81D-01 WtEn= 1.86D-02
 Coeff-Com:  0.632D-02-0.105D-01 0.238D-02 0.176D-02-0.179D-01-0.173D-02
 Coeff-Com:  0.329D-01-0.588D-01 0.773D-01 0.239D+00 0.730D+00
 Coeff-En:   0.000D+00 0.000D+00 0.000D+00 0.000D+00 0.000D+00 0.000D+00
 Coeff-En:   0.000D+00 0.000D+00 0.000D+00 0.000D+00 0.100D+01
 Coeff:      0.620D-02-0.104D-01 0.234D-02 0.173D-02-0.175D-01-0.170D-02
 Coeff:      0.323D-01-0.577D-01 0.758D-01 0.234D+00 0.735D+00
 Gap=     0.052 Goal=   None    Shift=    0.000
 RMSDP=8.64D-05 MaxDP=1.87D-03 DE=-6.90D-04 OVMax= 3.83D-03

 Cycle  12  Pass 1  IDiag  1:
 E= -758.655072560833     Delta-E=       -0.000256990114 Rises=F Damp=F
 DIIS: error= 1.19D-03 at cycle  12 NSaved=  12.
 NSaved=12 IEnMin=12 EnMin= -758.655072560833     IErMin=12 ErrMin= 1.19D-03
 ErrMax= 1.19D-03  0.00D+00 EMaxC= 1.00D-01 BMatC= 1.36D-04 BMatP= 3.83D-04
 IDIUse=3 WtCom= 9.88D-01 WtEn= 1.19D-02
 Coeff-Com:  0.401D-02-0.517D-02 0.491D-02 0.153D-02-0.114D-01-0.241D-02
 Coeff-Com:  0.254D-01-0.358D-01 0.339D-01 0.671D-01 0.295D+00 0.623D+00
 Coeff-En:   0.000D+00 0.000D+00 0.000D+00 0.000D+00 0.000D+00 0.000D+00
 Coeff-En:   0.000D+00 0.000D+00 0.000D+00 0.000D+00 0.000D+00 0.100D+01
 Coeff:      0.396D-02-0.511D-02 0.486D-02 0.151D-02-0.112D-01-0.238D-02
 Coeff:      0.251D-01-0.354D-01 0.335D-01 0.663D-01 0.291D+00 0.628D+00
 Gap=     0.051 Goal=   None    Shift=    0.000
 RMSDP=4.90D-05 MaxDP=1.09D-03 DE=-2.57D-04 OVMax= 3.12D-03

 Cycle  13  Pass 1  IDiag  1:
 E= -758.655118215746     Delta-E=       -0.000045654913 Rises=F Damp=F
 DIIS: error= 1.03D-03 at cycle  13 NSaved=  13.
 NSaved=13 IEnMin=13 EnMin= -758.655118215746     IErMin=13 ErrMin= 1.03D-03
 ErrMax= 1.03D-03  0.00D+00 EMaxC= 1.00D-01 BMatC= 8.94D-05 BMatP= 1.36D-04
 IDIUse=3 WtCom= 9.90D-01 WtEn= 1.03D-02
 Coeff-Com:  0.249D-02-0.773D-03 0.472D-02 0.686D-03-0.738D-02-0.230D-02
 Coeff-Com:  0.138D-01-0.777D-02 0.301D-01 0.108D-02-0.233D+00 0.557D+00
 Coeff-Com:  0.640D+00
 Coeff-En:   0.000D+00 0.000D+00 0.000D+00 0.000D+00 0.000D+00 0.000D+00
 Coeff-En:   0.000D+00 0.000D+00 0.000D+00 0.000D+00 0.000D+00 0.000D+00
 Coeff-En:   0.100D+01
 Coeff:      0.246D-02-0.765D-03 0.467D-02 0.679D-03-0.731D-02-0.228D-02
 Coeff:      0.137D-01-0.769D-02 0.298D-01 0.107D-02-0.230D+00 0.552D+00
 Coeff:      0.644D+00
 Gap=     0.052 Goal=   None    Shift=    0.000
 RMSDP=4.01D-05 MaxDP=1.10D-03 DE=-4.57D-05 OVMax= 2.73D-03

 Cycle  14  Pass 1  IDiag  1:
 E= -758.655183559544     Delta-E=       -0.000065343798 Rises=F Damp=F
 DIIS: error= 5.79D-04 at cycle  14 NSaved=  14.
 NSaved=14 IEnMin=14 EnMin= -758.655183559544     IErMin=14 ErrMin= 5.79D-04
 ErrMax= 5.79D-04  0.00D+00 EMaxC= 1.00D-01 BMatC= 3.12D-05 BMatP= 8.94D-05
 IDIUse=3 WtCom= 9.94D-01 WtEn= 5.79D-03
 Coeff-Com:  0.289D-03 0.177D-02 0.554D-03-0.997D-04-0.170D-02-0.242D-03
 Coeff-Com:  0.206D-02 0.336D-01 0.412D-01-0.904D-02-0.685D+00 0.945D-01
 Coeff-Com:  0.470D+00 0.105D+01
 Coeff-En:   0.000D+00 0.000D+00 0.000D+00 0.000D+00 0.000D+00 0.000D+00
 Coeff-En:   0.000D+00 0.000D+00 0.000D+00 0.000D+00 0.000D+00 0.000D+00
 Coeff-En:   0.000D+00 0.100D+01
 Coeff:      0.288D-03 0.176D-02 0.550D-03-0.991D-04-0.169D-02-0.241D-03
 Coeff:      0.205D-02 0.334D-01 0.409D-01-0.899D-02-0.682D+00 0.940D-01
 Coeff:      0.467D+00 0.105D+01
 Gap=     0.052 Goal=   None    Shift=    0.000
 RMSDP=5.85D-05 MaxDP=8.52D-04 DE=-6.53D-05 OVMax= 3.84D-03

 Cycle  15  Pass 1  IDiag  1:
 E= -758.655217677605     Delta-E=       -0.000034118061 Rises=F Damp=F
 DIIS: error= 8.27D-05 at cycle  15 NSaved=  15.
 NSaved=15 IEnMin=15 EnMin= -758.655217677605     IErMin=15 ErrMin= 8.27D-05
 ErrMax= 8.27D-05  0.00D+00 EMaxC= 1.00D-01 BMatC= 1.55D-06 BMatP= 3.12D-05
 IDIUse=1 WtCom= 1.00D+00 WtEn= 0.00D+00
 Coeff-Com:  0.437D-03-0.762D-03-0.578D-03 0.101D-03-0.255D-03-0.829D-04
 Coeff-Com:  0.643D-03 0.161D-01 0.177D-01-0.541D-02-0.336D+00-0.274D-02
 Coeff-Com:  0.144D+00 0.592D+00 0.575D+00
 Coeff:      0.437D-03-0.762D-03-0.578D-03 0.101D-03-0.255D-03-0.829D-04
 Coeff:      0.643D-03 0.161D-01 0.177D-01-0.541D-02-0.336D+00-0.274D-02
 Coeff:      0.144D+00 0.592D+00 0.575D+00
 Gap=     0.052 Goal=   None    Shift=    0.000
 RMSDP=1.27D-05 MaxDP=1.91D-04 DE=-3.41D-05 OVMax= 7.37D-04

 Cycle  16  Pass 1  IDiag  1:
 E= -758.655219293770     Delta-E=       -0.000001616165 Rises=F Damp=F
 DIIS: error= 2.58D-05 at cycle  16 NSaved=  16.
 NSaved=16 IEnMin=16 EnMin= -758.655219293770     IErMin=16 ErrMin= 2.58D-05
 ErrMax= 2.58D-05  0.00D+00 EMaxC= 1.00D-01 BMatC= 1.07D-07 BMatP= 1.55D-06
 IDIUse=1 WtCom= 1.00D+00 WtEn= 0.00D+00
 Coeff-Com: -0.836D-05-0.105D-03-0.277D-03-0.167D-04 0.463D-04 0.147D-05
 Coeff-Com:  0.293D-03 0.350D-02 0.476D-02-0.574D-03-0.801D-01-0.218D-01
 Coeff-Com:  0.373D-01 0.137D+00 0.309D+00 0.612D+00
 Coeff:     -0.836D-05-0.105D-03-0.277D-03-0.167D-04 0.463D-04 0.147D-05
 Coeff:      0.293D-03 0.350D-02 0.476D-02-0.574D-03-0.801D-01-0.218D-01
 Coeff:      0.373D-01 0.137D+00 0.309D+00 0.612D+00
 Gap=     0.052 Goal=   None    Shift=    0.000
 RMSDP=3.67D-06 MaxDP=4.73D-05 DE=-1.62D-06 OVMax= 2.21D-04

 Cycle  17  Pass 1  IDiag  1:
 E= -758.655219406338     Delta-E=       -0.000000112568 Rises=F Damp=F
 DIIS: error= 1.30D-05 at cycle  17 NSaved=  17.
 NSaved=17 IEnMin=17 EnMin= -758.655219406338     IErMin=17 ErrMin= 1.30D-05
 ErrMax= 1.30D-05  0.00D+00 EMaxC= 1.00D-01 BMatC= 1.78D-08 BMatP= 1.07D-07
 IDIUse=1 WtCom= 1.00D+00 WtEn= 0.00D+00
 Coeff-Com: -0.941D-04 0.964D-04-0.140D-04-0.181D-04 0.477D-04 0.821D-05
 Coeff-Com:  0.144D-03-0.921D-03 0.236D-03 0.188D-02 0.837D-02-0.150D-01
 Coeff-Com:  0.124D-01-0.288D-01 0.614D-01 0.299D+00 0.661D+00
 Coeff:     -0.941D-04 0.964D-04-0.140D-04-0.181D-04 0.477D-04 0.821D-05
 Coeff:      0.144D-03-0.921D-03 0.236D-03 0.188D-02 0.837D-02-0.150D-01
 Coeff:      0.124D-01-0.288D-01 0.614D-01 0.299D+00 0.661D+00
 Gap=     0.052 Goal=   None    Shift=    0.000
 RMSDP=1.81D-06 MaxDP=3.82D-05 DE=-1.13D-07 OVMax= 1.37D-04

 Cycle  18  Pass 1  IDiag  1:
 E= -758.655219427593     Delta-E=       -0.000000021255 Rises=F Damp=F
 DIIS: error= 6.84D-06 at cycle  18 NSaved=  18.
 NSaved=18 IEnMin=18 EnMin= -758.655219427593     IErMin=18 ErrMin= 6.84D-06
 ErrMax= 6.84D-06  0.00D+00 EMaxC= 1.00D-01 BMatC= 6.01D-09 BMatP= 1.78D-08
 IDIUse=1 WtCom= 1.00D+00 WtEn= 0.00D+00
 Coeff-Com: -0.737D-04 0.120D-03 0.464D-04-0.146D-04 0.245D-04 0.716D-05
 Coeff-Com:  0.384D-04-0.957D-03-0.397D-03 0.138D-02 0.108D-01-0.537D-02
 Coeff-Com:  0.533D-02-0.312D-01-0.154D-01 0.701D-01 0.303D+00 0.662D+00
 Coeff:     -0.737D-04 0.120D-03 0.464D-04-0.146D-04 0.245D-04 0.716D-05
 Coeff:      0.384D-04-0.957D-03-0.397D-03 0.138D-02 0.108D-01-0.537D-02
 Coeff:      0.533D-02-0.312D-01-0.154D-01 0.701D-01 0.303D+00 0.662D+00
 Gap=     0.052 Goal=   None    Shift=    0.000
 RMSDP=1.11D-06 MaxDP=1.61D-05 DE=-2.13D-08 OVMax= 8.43D-05

 Cycle  19  Pass 1  IDiag  1:
 E= -758.655219434466     Delta-E=       -0.000000006874 Rises=F Damp=F
 DIIS: error= 4.64D-06 at cycle  19 NSaved=  19.
 NSaved=19 IEnMin=19 EnMin= -758.655219434466     IErMin=19 ErrMin= 4.64D-06
 ErrMax= 4.64D-06  0.00D+00 EMaxC= 1.00D-01 BMatC= 2.97D-09 BMatP= 6.01D-09
 IDIUse=1 WtCom= 1.00D+00 WtEn= 0.00D+00
 Coeff-Com: -0.178D-04 0.276D-04 0.301D-04-0.351D-05 0.127D-04 0.207D-05
 Coeff-Com: -0.220D-04-0.412D-03-0.475D-03 0.318D-03 0.289D-02 0.185D-02
 Coeff-Com: -0.152D-02-0.938D-02-0.338D-01-0.514D-01-0.400D-01 0.400D+00
 Coeff-Com:  0.732D+00
 Coeff:     -0.178D-04 0.276D-04 0.301D-04-0.351D-05 0.127D-04 0.207D-05
 Coeff:     -0.220D-04-0.412D-03-0.475D-03 0.318D-03 0.289D-02 0.185D-02
 Coeff:     -0.152D-02-0.938D-02-0.338D-01-0.514D-01-0.400D-01 0.400D+00
 Coeff:      0.732D+00
 Gap=     0.052 Goal=   None    Shift=    0.000
 RMSDP=9.79D-07 MaxDP=1.32D-05 DE=-6.87D-09 OVMax= 6.75D-05

 Cycle  20  Pass 1  IDiag  1:
 E= -758.655219438666     Delta-E=       -0.000000004200 Rises=F Damp=F
 DIIS: error= 1.26D-06 at cycle  20 NSaved=  20.
 NSaved=20 IEnMin=20 EnMin= -758.655219438666     IErMin=20 ErrMin= 1.26D-06
 ErrMax= 1.26D-06  0.00D+00 EMaxC= 1.00D-01 BMatC= 1.99D-10 BMatP= 2.97D-09
 IDIUse=1 WtCom= 1.00D+00 WtEn= 0.00D+00
 Coeff-Com:  0.226D-06-0.248D-06 0.138D-05 0.129D-06 0.203D-05-0.357D-06
 Coeff-Com: -0.432D-05 0.174D-04-0.586D-04-0.402D-04-0.109D-02 0.108D-02
 Coeff-Com: -0.213D-02 0.293D-02-0.483D-02-0.142D-01-0.377D-01-0.166D-02
 Coeff-Com:  0.120D+00 0.938D+00
 Coeff:      0.226D-06-0.248D-06 0.138D-05 0.129D-06 0.203D-05-0.357D-06
 Coeff:     -0.432D-05 0.174D-04-0.586D-04-0.402D-04-0.109D-02 0.108D-02
 Coeff:     -0.213D-02 0.293D-02-0.483D-02-0.142D-01-0.377D-01-0.166D-02
 Coeff:      0.120D+00 0.938D+00
 Gap=     0.052 Goal=   None    Shift=    0.000
 RMSDP=2.95D-07 MaxDP=4.09D-06 DE=-4.20D-09 OVMax= 2.03D-05

 Cycle  21  Pass 1  IDiag  1:
 E= -758.655219438981     Delta-E=       -0.000000000315 Rises=F Damp=F
 DIIS: error= 1.34D-07 at cycle  21 NSaved=  20.
 NSaved=20 IEnMin=20 EnMin= -758.655219438981     IErMin=20 ErrMin= 1.34D-07
 ErrMax= 1.34D-07  0.00D+00 EMaxC= 1.00D-01 BMatC= 3.61D-12 BMatP= 1.99D-10
 IDIUse=1 WtCom= 1.00D+00 WtEn= 0.00D+00
 Coeff-Com:  0.672D-06 0.221D-07-0.104D-05-0.115D-06 0.502D-07 0.523D-06
 Coeff-Com:  0.406D-04 0.154D-04-0.268D-04-0.747D-03 0.306D-03-0.879D-03
 Coeff-Com:  0.208D-02 0.464D-03-0.161D-02-0.122D-01-0.290D-01 0.141D-02
 Coeff-Com:  0.430D+00 0.611D+00
 Coeff:      0.672D-06 0.221D-07-0.104D-05-0.115D-06 0.502D-07 0.523D-06
 Coeff:      0.406D-04 0.154D-04-0.268D-04-0.747D-03 0.306D-03-0.879D-03
 Coeff:      0.208D-02 0.464D-03-0.161D-02-0.122D-01-0.290D-01 0.141D-02
 Coeff:      0.430D+00 0.611D+00
 Gap=     0.052 Goal=   None    Shift=    0.000
 RMSDP=2.76D-08 MaxDP=4.44D-07 DE=-3.15D-10 OVMax= 1.84D-06

 Cycle  22  Pass 1  IDiag  1:
 E= -758.655219438974     Delta-E=        0.000000000007 Rises=F Damp=F
 DIIS: error= 3.65D-08 at cycle  22 NSaved=  20.
 NSaved=20 IEnMin=19 EnMin= -758.655219438981     IErMin=20 ErrMin= 3.65D-08
 ErrMax= 3.65D-08  0.00D+00 EMaxC= 1.00D-01 BMatC= 1.87D-13 BMatP= 3.61D-12
 IDIUse=1 WtCom= 1.00D+00 WtEn= 0.00D+00
 Coeff-Com:  0.252D-06-0.342D-06-0.449D-06 0.609D-08 0.491D-06 0.837D-05
 Coeff-Com:  0.435D-05-0.134D-04-0.802D-04 0.272D-05-0.448D-04 0.213D-03
 Coeff-Com:  0.340D-03 0.512D-03-0.328D-03-0.613D-02-0.831D-02 0.297D-01
 Coeff-Com:  0.144D+00 0.840D+00
 Coeff:      0.252D-06-0.342D-06-0.449D-06 0.609D-08 0.491D-06 0.837D-05
 Coeff:      0.435D-05-0.134D-04-0.802D-04 0.272D-05-0.448D-04 0.213D-03
 Coeff:      0.340D-03 0.512D-03-0.328D-03-0.613D-02-0.831D-02 0.297D-01
 Coeff:      0.144D+00 0.840D+00
 Gap=     0.052 Goal=   None    Shift=    0.000
 RMSDP=9.64D-09 MaxDP=1.70D-07 DE= 7.28D-12 OVMax= 6.49D-07

 Error on total polarization charges =  0.00562
 SCF Done:  E(RB3LYP) =  -758.655219439     A.U. after   22 cycles
            NFock= 22  Conv=0.96D-08     -V/T= 2.0047
 KE= 7.550913435027D+02 PE=-3.595076606962D+03 EE= 1.180449231688D+03
 Leave Link  502 at Wed Feb 28 19:17:16 2018, MaxMem=   402653184 cpu:             288.6 elap:              81.8
 (Enter /n/sw/g16_nehalem/g16/l601.exe)
 Copying SCF densities to generalized density rwf, IOpCl= 0 IROHF=0.

 **********************************************************************

            Population analysis using the SCF density.

 **********************************************************************

 Orbital symmetries:
       Occupied  (A) (A) (A) (A) (A) (A) (A) (A) (A) (A) (A) (A)
                 (A) (A) (A) (A) (A) (A) (A) (A) (A) (A) (A) (A)
                 (A) (A) (A) (A) (A) (A) (A) (A) (A) (A) (A) (A)
                 (A) (A) (A) (A) (A) (A) (A) (A) (A) (A) (A) (A)
                 (A) (A) (A) (A) (A) (A)
       Virtual   (A) (A) (A) (A) (A) (A) (A) (A) (A) (A) (A) (A)
                 (A) (A) (A) (A) (A) (A) (A) (A) (A) (A) (A) (A)
                 (A) (A) (A) (A) (A) (A) (A) (A) (A) (A) (A) (A)
                 (A) (A) (A) (A) (A) (A) (A) (A) (A) (A) (A) (A)
                 (A) (A) (A) (A) (A) (A) (A) (A) (A) (A) (A) (A)
                 (A) (A) (A) (A) (A) (A) (A) (A) (A) (A) (A) (A)
                 (A) (A) (A) (A) (A) (A) (A) (A) (A) (A) (A) (A)
                 (A) (A) (A) (A) (A) (A) (A) (A) (A) (A)
 The electronic state is 1-A.
 Alpha  occ. eigenvalues --  -19.20431 -19.16762 -19.14175 -19.06986 -19.05884
 Alpha  occ. eigenvalues --  -14.38785 -14.37007 -10.35159 -10.31745 -10.24867
 Alpha  occ. eigenvalues --  -10.18968 -10.18440 -10.17252 -10.16204  -1.11140
 Alpha  occ. eigenvalues --   -1.06957  -1.05421  -1.03250  -0.94576  -0.87710
 Alpha  occ. eigenvalues --   -0.80024  -0.76342  -0.75738  -0.70913  -0.62844
 Alpha  occ. eigenvalues --   -0.61019  -0.59235  -0.53634  -0.51821  -0.51086
 Alpha  occ. eigenvalues --   -0.48516  -0.46719  -0.46385  -0.44761  -0.44312
 Alpha  occ. eigenvalues --   -0.43812  -0.42410  -0.42012  -0.40377  -0.40049
 Alpha  occ. eigenvalues --   -0.39344  -0.38358  -0.36424  -0.35171  -0.34828
 Alpha  occ. eigenvalues --   -0.32883  -0.31550  -0.29625  -0.27825  -0.25836
 Alpha  occ. eigenvalues --   -0.21518  -0.21163  -0.18503  -0.11564
 Alpha virt. eigenvalues --   -0.06359  -0.04738  -0.01213   0.06302   0.09438
 Alpha virt. eigenvalues --    0.10480   0.13205   0.14708   0.15167   0.15795
 Alpha virt. eigenvalues --    0.16630   0.16889   0.18746   0.19416   0.20561
 Alpha virt. eigenvalues --    0.22358   0.22376   0.23583   0.25214   0.26607
 Alpha virt. eigenvalues --    0.27779   0.29369   0.30638   0.31944   0.35089
 Alpha virt. eigenvalues --    0.35569   0.38972   0.51215   0.53822   0.55499
 Alpha virt. eigenvalues --    0.56426   0.56891   0.59520   0.60893   0.61740
 Alpha virt. eigenvalues --    0.62377   0.63967   0.64745   0.66217   0.68116
 Alpha virt. eigenvalues --    0.68509   0.70197   0.71053   0.73839   0.75814
 Alpha virt. eigenvalues --    0.76405   0.77948   0.80446   0.81499   0.82924
 Alpha virt. eigenvalues --    0.84862   0.87256   0.89485   0.90273   0.90563
 Alpha virt. eigenvalues --    0.92120   0.92450   0.92976   0.93349   0.93961
 Alpha virt. eigenvalues --    0.95970   0.97344   0.97619   0.98507   0.98966
 Alpha virt. eigenvalues --    1.00426   1.00816   1.03159   1.04016   1.05003
 Alpha virt. eigenvalues --    1.05601   1.08546   1.09562   1.11110   1.11532
 Alpha virt. eigenvalues --    1.13562   1.14747   1.17253   1.18735   1.21898
 Alpha virt. eigenvalues --    1.24208   1.28165   1.31816   1.39696   1.44148
 Alpha virt. eigenvalues --    1.53350   1.63299   1.69842   1.72255   1.75238
 Alpha virt. eigenvalues --    1.81801   1.82495   1.91766   1.97986
          Condensed to atoms (all electrons):
               1          2          3          4          5          6
     1  C    5.221913   0.367676   0.354241   0.284641  -0.042325  -0.040612
     2  H    0.367676   0.564789  -0.038206  -0.042065  -0.004512   0.005832
     3  H    0.354241  -0.038206   0.645310  -0.034512   0.005619  -0.007453
     4  C    0.284641  -0.042065  -0.034512   5.263335   0.381919   0.364023
     5  H   -0.042325  -0.004512   0.005619   0.381919   0.583614  -0.035507
     6  H   -0.040612   0.005832  -0.007453   0.364023  -0.035507   0.596907
     7  C   -0.037490  -0.009151   0.000814   0.178787  -0.034584  -0.036324
     8  H   -0.002325  -0.000475   0.004501  -0.041829   0.005120  -0.003613
     9  C    0.003066   0.000233   0.000085  -0.034275  -0.005435  -0.000397
    10  C    0.299346  -0.027089  -0.077917  -0.038187  -0.001782   0.003174
    11  H   -0.070462   0.004392   0.001335  -0.003664   0.001325   0.003177
    12  O   -0.000092  -0.000001   0.000001   0.004184   0.000007  -0.000011
    13  O    0.000079  -0.000004  -0.000003   0.009578   0.002377   0.001854
    14  H    0.000007   0.000000   0.000000  -0.000763  -0.000053   0.000045
    15  N   -0.009451   0.014062  -0.000065  -0.079078  -0.002937   0.004812
    16  H    0.000329   0.000213  -0.000031   0.000541   0.001178  -0.000073
    17  C   -0.000932   0.000117   0.000027   0.001481  -0.000014  -0.000025
    18  O    0.000004  -0.000006   0.000001  -0.000162   0.000001   0.000001
    19  C    0.000110   0.000084   0.000057   0.000261  -0.000034   0.000012
    20  H    0.000525   0.000299   0.000384  -0.000225   0.000004   0.000003
    21  H   -0.000495  -0.000002   0.000188   0.000775  -0.000022   0.000018
    22  H    0.000015   0.000005   0.000011  -0.000010   0.000001   0.000000
    23  N   -0.055750  -0.000237  -0.013958   0.002661   0.000017   0.000160
    24  O   -0.023032   0.006561   0.002386   0.000144   0.000085  -0.000009
    25  O    0.001009  -0.001470   0.030246   0.000610   0.000000  -0.000028
               7          8          9         10         11         12
     1  C   -0.037490  -0.002325   0.003066   0.299346  -0.070462  -0.000092
     2  H   -0.009151  -0.000475   0.000233  -0.027089   0.004392  -0.000001
     3  H    0.000814   0.004501   0.000085  -0.077917   0.001335   0.000001
     4  C    0.178787  -0.041829  -0.034275  -0.038187  -0.003664   0.004184
     5  H   -0.034584   0.005120  -0.005435  -0.001782   0.001325   0.000007
     6  H   -0.036324  -0.003613  -0.000397   0.003174   0.003177  -0.000011
     7  C    5.574492   0.389148   0.140610   0.002651   0.000139  -0.101752
     8  H    0.389148   0.522137  -0.033753   0.000044   0.000000  -0.000807
     9  C    0.140610  -0.033753   4.835959  -0.000107  -0.000012   0.453952
    10  C    0.002651   0.000044  -0.000107   5.455087   0.373751   0.000000
    11  H    0.000139   0.000000  -0.000012   0.373751   0.611686   0.000000
    12  O   -0.101752  -0.000807   0.453952   0.000000   0.000000   8.187216
    13  O   -0.095605   0.000816   0.192579   0.000005  -0.000003  -0.101419
    14  H    0.008243  -0.000097  -0.011677   0.000000   0.000000   0.005207
    15  N    0.216992  -0.051493  -0.061211  -0.000012  -0.000013  -0.002106
    16  H   -0.041204   0.005281  -0.000237  -0.000008   0.000001   0.002878
    17  C   -0.026568  -0.008050   0.003257   0.000000   0.000000   0.006346
    18  O    0.002135   0.000278   0.000039   0.000000   0.000000  -0.000389
    19  C   -0.012537   0.002895  -0.000631   0.000000   0.000000  -0.000106
    20  H   -0.000175  -0.000642   0.000074   0.000003   0.000000   0.000003
    21  H   -0.011818   0.012648   0.000647  -0.000006   0.000000   0.000240
    22  H    0.000694  -0.000356  -0.000022   0.000000   0.000000  -0.000011
    23  N   -0.000179  -0.000001   0.000001   0.147310  -0.055962   0.000000
    24  O    0.000007   0.000001   0.000000  -0.056526   0.008568   0.000000
    25  O    0.000008  -0.000007   0.000000  -0.123248   0.004046   0.000000
              13         14         15         16         17         18
     1  C    0.000079   0.000007  -0.009451   0.000329  -0.000932   0.000004
     2  H   -0.000004   0.000000   0.014062   0.000213   0.000117  -0.000006
     3  H   -0.000003   0.000000  -0.000065  -0.000031   0.000027   0.000001
     4  C    0.009578  -0.000763  -0.079078   0.000541   0.001481  -0.000162
     5  H    0.002377  -0.000053  -0.002937   0.001178  -0.000014   0.000001
     6  H    0.001854   0.000045   0.004812  -0.000073  -0.000025   0.000001
     7  C   -0.095605   0.008243   0.216992  -0.041204  -0.026568   0.002135
     8  H    0.000816  -0.000097  -0.051493   0.005281  -0.008050   0.000278
     9  C    0.192579  -0.011677  -0.061211  -0.000237   0.003257   0.000039
    10  C    0.000005   0.000000  -0.000012  -0.000008   0.000000   0.000000
    11  H   -0.000003   0.000000  -0.000013   0.000001   0.000000   0.000000
    12  O   -0.101419   0.005207  -0.002106   0.002878   0.006346  -0.000389
    13  O    8.322021   0.231936   0.001034   0.000271   0.000078   0.000000
    14  H    0.231936   0.355387  -0.000174  -0.000039  -0.000004   0.000000
    15  N    0.001034  -0.000174   7.285682   0.288217   0.135311  -0.107358
    16  H    0.000271  -0.000039   0.288217   0.413125  -0.011227   0.006085
    17  C    0.000078  -0.000004   0.135311  -0.011227   4.725598   0.530930
    18  O    0.000000   0.000000  -0.107358   0.006085   0.530930   8.152120
    19  C   -0.000007   0.000000  -0.122833   0.006711   0.262353  -0.101749
    20  H    0.000000   0.000000   0.002718  -0.000074  -0.024872   0.000932
    21  H    0.000004   0.000000   0.002799  -0.000477  -0.027226   0.003281
    22  H    0.000000   0.000000   0.003908  -0.000122  -0.022198   0.003470
    23  N    0.000000   0.000000   0.000000   0.000000   0.000000   0.000000
    24  O    0.000000   0.000000  -0.000003   0.000000   0.000000   0.000000
    25  O    0.000000   0.000000   0.000000   0.000000   0.000000   0.000000
              19         20         21         22         23         24
     1  C    0.000110   0.000525  -0.000495   0.000015  -0.055750  -0.023032
     2  H    0.000084   0.000299  -0.000002   0.000005  -0.000237   0.006561
     3  H    0.000057   0.000384   0.000188   0.000011  -0.013958   0.002386
     4  C    0.000261  -0.000225   0.000775  -0.000010   0.002661   0.000144
     5  H   -0.000034   0.000004  -0.000022   0.000001   0.000017   0.000085
     6  H    0.000012   0.000003   0.000018   0.000000   0.000160  -0.000009
     7  C   -0.012537  -0.000175  -0.011818   0.000694  -0.000179   0.000007
     8  H    0.002895  -0.000642   0.012648  -0.000356  -0.000001   0.000001
     9  C   -0.000631   0.000074   0.000647  -0.000022   0.000001   0.000000
    10  C    0.000000   0.000003  -0.000006   0.000000   0.147310  -0.056526
    11  H    0.000000   0.000000   0.000000   0.000000  -0.055962   0.008568
    12  O   -0.000106   0.000003   0.000240  -0.000011   0.000000   0.000000
    13  O   -0.000007   0.000000   0.000004   0.000000   0.000000   0.000000
    14  H    0.000000   0.000000   0.000000   0.000000   0.000000   0.000000
    15  N   -0.122833   0.002718   0.002799   0.003908   0.000000  -0.000003
    16  H    0.006711  -0.000074  -0.000477  -0.000122   0.000000   0.000000
    17  C    0.262353  -0.024872  -0.027226  -0.022198   0.000000   0.000000
    18  O   -0.101749   0.000932   0.003281   0.003470   0.000000   0.000000
    19  C    5.377060   0.360253   0.342373   0.357307   0.000000   0.000000
    20  H    0.360253   0.496855  -0.021490  -0.019535   0.000001   0.000000
    21  H    0.342373  -0.021490   0.534840  -0.021859   0.000000   0.000000
    22  H    0.357307  -0.019535  -0.021859   0.510710   0.000000   0.000000
    23  N    0.000000   0.000001   0.000000   0.000000   6.952832   0.030529
    24  O    0.000000   0.000000   0.000000   0.000000   0.030529   8.687870
    25  O    0.000000  -0.000001   0.000001   0.000000   0.062910  -0.127696
              25
     1  C    0.001009
     2  H   -0.001470
     3  H    0.030246
     4  C    0.000610
     5  H    0.000000
     6  H   -0.000028
     7  C    0.000008
     8  H   -0.000007
     9  C    0.000000
    10  C   -0.123248
    11  H    0.004046
    12  O    0.000000
    13  O    0.000000
    14  H    0.000000
    15  N    0.000000
    16  H    0.000000
    17  C    0.000000
    18  O    0.000000
    19  C    0.000000
    20  H   -0.000001
    21  H    0.000001
    22  H    0.000000
    23  N    0.062910
    24  O   -0.127696
    25  O    8.713680
 Mulliken charges:
               1
     1  C   -0.249994
     2  H    0.158954
     3  H    0.126938
     4  C   -0.218170
     5  H    0.145939
     6  H    0.144035
     7  C   -0.107333
     8  H    0.200578
     9  C    0.517253
    10  C    0.043509
    11  H    0.121696
    12  O   -0.453340
    13  O   -0.565592
    14  H    0.411982
    15  N   -0.518802
    16  H    0.328663
    17  C    0.455617
    18  O   -0.489612
    19  C   -0.471577
    20  H    0.204960
    21  H    0.185582
    22  H    0.187992
    23  N   -0.070334
    24  O   -0.528884
    25  O   -0.560061
 Sum of Mulliken charges =  -1.00000
 Mulliken charges with hydrogens summed into heavy atoms:
               1
     1  C    0.035898
     4  C    0.071804
     7  C    0.093245
     9  C    0.517253
    10  C    0.165205
    12  O   -0.453340
    13  O   -0.153609
    15  N   -0.190139
    17  C    0.455617
    18  O   -0.489612
    19  C    0.106958
    23  N   -0.070334
    24  O   -0.528884
    25  O   -0.560061
 Electronic spatial extent (au):  <R**2>=           3849.9021
 Charge=             -1.0000 electrons
 Dipole moment (field-independent basis, Debye):
    X=             16.5094    Y=             -6.1942    Z=              2.0780  Tot=             17.7552
 Quadrupole moment (field-independent basis, Debye-Ang):
   XX=           -180.4007   YY=            -85.1202   ZZ=            -88.8022
   XY=             -3.3847   XZ=              4.4773   YZ=              8.9680
 Traceless Quadrupole moment (field-independent basis, Debye-Ang):
   XX=            -62.2930   YY=             32.9875   ZZ=             29.3055
   XY=             -3.3847   XZ=              4.4773   YZ=              8.9680
 Octapole moment (field-independent basis, Debye-Ang**2):
  XXX=            269.9815  YYY=            -45.3494  ZZZ=             -0.3891  XYY=             12.5591
  XXY=            -96.3092  XXZ=             -5.6471  XZZ=             40.8225  YZZ=             -7.4182
  YYZ=             17.8900  XYZ=             14.3845
 Hexadecapole moment (field-independent basis, Debye-Ang**3):
 XXXX=          -4892.5139 YYYY=          -1102.4937 ZZZZ=           -315.1047 XXXY=              0.1742
 XXXZ=             47.8093 YYYX=           -203.1752 YYYZ=             46.9393 ZZZX=             -3.2264
 ZZZY=              4.8439 XXYY=           -746.7531 XXZZ=           -725.3099 YYZZ=           -249.3051
 XXYZ=             69.2908 YYXZ=             34.9611 ZZXY=             -2.6579
 N-N= 9.008808123327D+02 E-N=-3.595076606498D+03  KE= 7.550913435027D+02
 No NMR shielding tensors so no spin-rotation constants.
 Leave Link  601 at Wed Feb 28 19:17:17 2018, MaxMem=   402653184 cpu:               1.9 elap:               0.7
 (Enter /n/sw/g16_nehalem/g16/l701.exe)
 ... and contract with generalized density number  0.
 Compute integral first derivatives.
 R6Disp: Adding Grimme-D3(BJ) dispersion energy 1st derivatives to the gradient.
 D1PCM: PCM CHGder 1st derivatives, ID1Alg=3 FixD1E=F DoIter=F DoCFld=F I1PDM=0.
 GePol: Maximum number of non-zero 1st derivatives   =     221
 Leave Link  701 at Wed Feb 28 19:17:18 2018, MaxMem=   402653184 cpu:               6.3 elap:               1.7
 (Enter /n/sw/g16_nehalem/g16/l702.exe)
 L702 exits ... SP integral derivatives will be done elsewhere.
 Leave Link  702 at Wed Feb 28 19:17:19 2018, MaxMem=   402653184 cpu:               0.3 elap:               0.1
 (Enter /n/sw/g16_nehalem/g16/l703.exe)
 Integral derivatives from FoFJK, PRISM(SPDF).
 Compute integral first derivatives, UseDBF=F ICtDFT=           0.
 Calling FoFJK, ICntrl=      2127 FMM=F ISym2X=0 I1Cent= 0 IOpClX= 0 NMat=1 NMatS=1 NMatT=0.
 FoFJK:  IHMeth= 1 ICntrl=    2127 DoSepK=F KAlg= 0 I1Cent=           0 FoldK=F
 IRaf=         0 NMat=       1 IRICut=       1 DoRegI=T DoRafI=F ISym2E= 0 IDoP0=0 IntGTp=1.
 FoFCou: FMM=F IPFlag=           0 FMFlag=      100000 FMFlg1=         800
         NFxFlg=           0 DoJE=F BraDBF=F KetDBF=F FulRan=T
         wScrn=  0.000000 ICntrl=      2127 IOpCl=  0 I1Cent=           0 NGrid=           0
         NMat0=    1 NMatS0=      1 NMatT0=    0 NMatD0=    1 NMtDS0=    0 NMtDT0=    0
 Symmetry not used in FoFCou.
 Leave Link  703 at Wed Feb 28 19:17:25 2018, MaxMem=   402653184 cpu:              24.0 elap:               6.0
 (Enter /n/sw/g16_nehalem/g16/l716.exe)
 Dipole        = 6.49528973D+00-2.43700431D+00 8.17532308D-01
 ***** Axes restored to original set *****
 -------------------------------------------------------------------
 Center     Atomic                   Forces (Hartrees/Bohr)
 Number     Number              X              Y              Z
 -------------------------------------------------------------------
      1        6           0.052389373   -0.017652088    0.012929713
      2        1          -0.001165826    0.013143261   -0.010181191
      3        1          -0.022665072   -0.008663257   -0.005128890
      4        6          -0.021495237    0.007164612   -0.025864245
      5        1           0.016970426    0.000233202    0.002628711
      6        1          -0.003195124   -0.008081288    0.015515876
      7        6           0.049891309   -0.043603705    0.028102615
      8        1          -0.004140058   -0.001688384    0.009821742
      9        6          -0.003628546    0.029073894    0.025160826
     10        6           0.043141882    0.085476105    0.069799207
     11        1          -0.008685351   -0.007511251    0.021791297
     12        8           0.009747149   -0.025509388   -0.002979888
     13        8          -0.029597494   -0.003897267   -0.050475762
     14        1           0.004248195    0.014778485    0.015741811
     15        7          -0.066111848    0.033983654   -0.000557555
     16        1           0.019627031    0.009381115   -0.009743630
     17        6           0.015203845    0.014023021   -0.005857999
     18        8           0.002168927   -0.018120853    0.002834075
     19        6           0.031378337    0.005033035    0.003078913
     20        1          -0.002826424   -0.012858613   -0.011936741
     21        1          -0.014247693   -0.005208806    0.005304846
     22        1          -0.005093896    0.012449435   -0.002544110
     23        7          -0.035652099   -0.036739197   -0.075833626
     24        8           0.021466106    0.013535315   -0.016678357
     25        8          -0.047727910   -0.048741036    0.005072363
 -------------------------------------------------------------------
 Cartesian Forces:  Max     0.085476105 RMS     0.026999568
 Leave Link  716 at Wed Feb 28 19:17:25 2018, MaxMem=   402653184 cpu:               0.2 elap:               0.1
 (Enter /n/sw/g16_nehalem/g16/l103.exe)

 GradGradGradGradGradGradGradGradGradGradGradGradGradGradGradGradGradGrad
 Berny optimization.
 FormGI is forming the generalized inverse of G from B-inverse, IUseBI=4.
 Internal  Forces:  Max     0.124817305 RMS     0.020056353
 Search for a local minimum.
 Step number   1 out of a maximum of  126
 All quantities printed in internal units (Hartrees-Bohrs-Radians)
 RMS Force = .20056D-01 SwitMx=.10000D-02 MixMth= 1
 Mixed Optimization -- RFO/linear search
 Second derivative matrix not updated -- first step.
 ITU=  0
     Eigenvalues ---    0.00237   0.00237   0.00237   0.00237   0.00237
     Eigenvalues ---    0.00449   0.00500   0.00766   0.00766   0.01295
     Eigenvalues ---    0.01382   0.03099   0.03399   0.03840   0.04356
     Eigenvalues ---    0.04828   0.04896   0.05056   0.05410   0.06194
     Eigenvalues ---    0.07243   0.07243   0.07655   0.08669   0.09838
     Eigenvalues ---    0.11287   0.11701   0.12376   0.16000   0.16000
     Eigenvalues ---    0.16000   0.16000   0.16000   0.16855   0.17980
     Eigenvalues ---    0.21948   0.21983   0.22000   0.23464   0.25000
     Eigenvalues ---    0.25000   0.25000   0.25000   0.25000   0.25000
     Eigenvalues ---    0.28519   0.28519   0.28519   0.28519   0.28519
     Eigenvalues ---    0.35740   0.35740   0.37230   0.37230   0.37230
     Eigenvalues ---    0.37230   0.37230   0.37230   0.37230   0.37230
     Eigenvalues ---    0.37230   0.40989   0.47688   0.52948   0.52948
     Eigenvalues ---    0.55473   0.69002   0.80209   0.80209
 RFO step:  Lambda=-1.12377179D-01 EMin= 2.36824099D-03
 Linear search not attempted -- first point.
 Maximum step size (   0.300) exceeded in Quadratic search.
    -- Step size scaled by   0.653
 Iteration  1 RMS(Cart)=  0.13552291 RMS(Int)=  0.00730034
 Iteration  2 RMS(Cart)=  0.00990363 RMS(Int)=  0.00082418
 Iteration  3 RMS(Cart)=  0.00011653 RMS(Int)=  0.00082146
 Iteration  4 RMS(Cart)=  0.00000051 RMS(Int)=  0.00082146
 ITry= 1 IFail=0 DXMaxC= 6.57D-01 DCOld= 1.00D+10 DXMaxT= 3.00D-01 DXLimC= 3.00D+00 Rises=F
 Variable       Old X    -DE/DX   Delta X   Delta X   Delta X     New X
                                 (Linear)    (Quad)   (Total)
    R1        2.02201   0.01412   0.00000   0.01903   0.01903   2.04103
    R2        2.02201   0.02267   0.00000   0.03054   0.03054   2.05255
    R3        2.91018   0.00157   0.00000   0.00259   0.00259   2.91276
    R4        2.91018  -0.01483   0.00000  -0.02437  -0.02437   2.88581
    R5        2.02201   0.01696   0.00000   0.02286   0.02286   2.04487
    R6        2.02201   0.01755   0.00000   0.02365   0.02365   2.04565
    R7        2.91018   0.00517   0.00000   0.00850   0.00850   2.91868
    R8        2.02201   0.00412   0.00000   0.00556   0.00556   2.02756
    R9        2.91018  -0.00984   0.00000  -0.01617  -0.01617   2.89401
   R10        2.77790   0.02750   0.00000   0.03823   0.03823   2.81613
   R11        2.37803  -0.02724   0.00000  -0.01945  -0.01945   2.35858
   R12        2.70231  -0.04270   0.00000  -0.05339  -0.05339   2.64891
   R13        2.02201   0.01378   0.00000   0.01856   0.01856   2.04057
   R14        2.44455   0.12482   0.00000   0.10159   0.10159   2.54614
   R15        1.81414   0.02193   0.00000   0.02147   0.02147   1.83560
   R16        1.88973   0.01854   0.00000   0.02055   0.02055   1.91028
   R17        2.77790  -0.01864   0.00000  -0.02591  -0.02591   2.75199
   R18        2.37803  -0.01693   0.00000  -0.01209  -0.01209   2.36594
   R19        2.91018  -0.00861   0.00000  -0.01414  -0.01414   2.89604
   R20        2.02201   0.01764   0.00000   0.02378   0.02378   2.04578
   R21        2.02201   0.00985   0.00000   0.01327   0.01327   2.03527
   R22        2.02201   0.01316   0.00000   0.01774   0.01774   2.03974
   R23        2.57003   0.02669   0.00000   0.02716   0.02716   2.59718
   R24        2.57003   0.05207   0.00000   0.05299   0.05299   2.62302
    A1        1.91063  -0.00126   0.00000  -0.00736  -0.00724   1.90339
    A2        1.91063  -0.00474   0.00000  -0.00772  -0.00794   1.90269
    A3        1.91063   0.00573   0.00000   0.02078   0.02076   1.93139
    A4        1.91063   0.00488   0.00000   0.01286   0.01297   1.92360
    A5        1.91063  -0.01113   0.00000  -0.03285  -0.03280   1.87784
    A6        1.91063   0.00653   0.00000   0.01428   0.01420   1.92484
    A7        1.91063  -0.00059   0.00000   0.00198   0.00198   1.91261
    A8        1.91063  -0.00274   0.00000  -0.00512  -0.00511   1.90553
    A9        1.91063   0.00907   0.00000   0.01925   0.01923   1.92987
   A10        1.91063   0.00009   0.00000  -0.00433  -0.00437   1.90627
   A11        1.91063  -0.00331   0.00000  -0.00652  -0.00661   1.90403
   A12        1.91063  -0.00252   0.00000  -0.00525  -0.00526   1.90537
   A13        1.91063  -0.00504   0.00000  -0.01180  -0.01171   1.89893
   A14        1.91063   0.01174   0.00000   0.02797   0.02809   1.93872
   A15        1.91063   0.00297   0.00000   0.01202   0.01206   1.92269
   A16        1.91063  -0.00628   0.00000  -0.02385  -0.02377   1.88686
   A17        1.91063   0.00535   0.00000   0.01363   0.01345   1.92408
   A18        1.91063  -0.00872   0.00000  -0.01797  -0.01828   1.89236
   A19        2.09836   0.01429   0.00000   0.02575   0.02574   2.12410
   A20        2.09241  -0.02169   0.00000  -0.03909  -0.03909   2.05332
   A21        2.09241   0.00740   0.00000   0.01334   0.01334   2.10575
   A22        2.09241  -0.00615   0.00000  -0.01343  -0.01344   2.07897
   A23        2.09836   0.00605   0.00000   0.01189   0.01188   2.11024
   A24        2.09241   0.00010   0.00000   0.00154   0.00153   2.09395
   A25        1.91114  -0.00334   0.00000  -0.00802  -0.00802   1.90312
   A26        1.91063  -0.01306   0.00000  -0.00485  -0.00591   1.90472
   A27        1.91063   0.08602   0.00000   0.16714   0.16560   2.07623
   A28        1.91063  -0.02756   0.00000  -0.04423  -0.04760   1.86303
   A29        2.09836  -0.01697   0.00000  -0.03059  -0.03091   2.06745
   A30        2.09241   0.02064   0.00000   0.03719   0.03687   2.12928
   A31        2.09241  -0.00366   0.00000  -0.00660  -0.00694   2.08548
   A32        1.91063  -0.00086   0.00000  -0.00240  -0.00260   1.90804
   A33        1.91063   0.01987   0.00000   0.04937   0.04935   1.95998
   A34        1.91063  -0.00911   0.00000  -0.02321  -0.02317   1.88746
   A35        1.91063  -0.00651   0.00000  -0.01288  -0.01311   1.89752
   A36        1.91063   0.00122   0.00000  -0.00050  -0.00065   1.90998
   A37        1.91063  -0.00462   0.00000  -0.01038  -0.01018   1.90046
   A38        1.91063  -0.01945   0.00000  -0.01878  -0.02190   1.88873
   A39        1.91063   0.06372   0.00000   0.13113   0.12829   2.03893
   A40        1.91063   0.01553   0.00000   0.06054   0.05575   1.96638
    D1       -1.04720  -0.00413   0.00000  -0.01544  -0.01545  -1.06265
    D2       -3.14159  -0.00221   0.00000  -0.00821  -0.00820   3.13339
    D3        1.04720  -0.00300   0.00000  -0.01043  -0.01039   1.03681
    D4        3.14159  -0.00268   0.00000  -0.00958  -0.00958   3.13201
    D5        1.04720  -0.00075   0.00000  -0.00235  -0.00233   1.04487
    D6       -1.04720  -0.00155   0.00000  -0.00457  -0.00452  -1.05172
    D7        1.04720   0.00397   0.00000   0.01403   0.01397   1.06117
    D8       -1.04720   0.00590   0.00000   0.02126   0.02122  -1.02597
[...]
 .00215642,-0.09692621,0.51516558,0.00109233,0.00001119,0.00016194,0.00
 003504,0.00033008,0.00106990,-0.00021454,-0.00009060,0.00010852,-0.000
 02316,-0.00014740,-0.00145140,-0.00012217,0.00004475,-0.00028543,-0.00
 013919,-0.00034414,0.00060502,-0.01408538,0.02363767,-0.01820450,-0.00
 013801,-0.00024309,0.00162624,-0.00002192,0.00370469,-0.00686241,-0.00
 058060,-0.00028123,-0.00043538,0.00007798,-0.00018693,-0.00000855,0.00
 086313,-0.00120570,0.00415435,-0.00052086,-0.00103481,0.00481099,0.000
 01337,-0.00003441,-0.00015414,-0.01014331,0.06306355,-0.12677378,0.013
 05391,-0.01662571,0.01226960,-0.17276488,-0.24888443,0.64802671,0.0000
 3774,-0.00004266,-0.00014918,-0.00000713,-0.00004009,0.00015784,0.0000
 0179,-0.00000352,0.00001993,0.00029728,0.00036181,-0.00092237,-0.00003
 669,-0.00005496,0.00002302,-0.00020742,0.00021904,0.00006246,0.0007310
 9,0.00498222,0.00083034,0.00023831,0.00050302,-0.00040355,0.00014277,0
 .00002325,-0.00004193,-0.00003586,-0.00003278,-0.00000479,0.00000876,-
 0.00002453,0.00000540,0.00008781,-0.00037073,0.00028775,-0.00004803,-0
 .00002373,0.00045437,-0.00005540,-0.00003003,-0.00003438,0.02661612,0.
 01100093,-0.02065577,0.00167981,-0.00550501,0.00060018,-0.14890689,-0.
 06094902,0.13585409,0.13124408,0.00066525,0.00012299,0.00007456,-0.000
 04993,0.00008860,0.00040991,-0.00006975,-0.00001294,0.00002500,-0.0012
 0690,0.00016340,0.00166755,0.00011595,0.00011176,-0.00022262,0.0003540
 3,-0.00093950,0.00008420,0.00749102,0.00570497,-0.00405879,-0.00050708
 ,-0.00036640,0.00076755,-0.00103694,-0.00382273,-0.00201173,-0.0004181
 0,-0.00012045,-0.00038523,0.00005101,-0.00008039,0.00001358,0.00050240
 ,0.00122633,0.00143804,0.00015100,0.00049268,0.00345535,-0.00008160,-0
 .00003514,0.00025298,-0.00039314,-0.04460641,0.06714919,-0.00397433,0.
 00089895,-0.00239312,-0.06913817,-0.18743685,0.19087786,0.06556463,0.2
 1219365,-0.00089037,-0.00022906,-0.00021166,0.00004254,-0.00017683,-0.
 00059369,0.00011989,0.00002884,-0.00003218,0.00170552,0.00006113,-0.00
 232018,-0.00013390,-0.00011935,0.00025140,-0.00050930,0.00115118,-0.00
 013957,-0.00309109,-0.00177900,0.01052416,0.00026872,0.00045354,-0.001
 22611,0.00072048,0.00246594,0.00389983,0.00048974,0.00019324,0.0004667
 7,-0.00004642,0.00011787,-0.00001070,-0.00066847,-0.00118595,-0.001894
 32,-0.00001742,-0.00022579,-0.00364454,0.00007954,0.00001822,-0.000140
 08,-0.00567900,0.05981329,-0.03664523,-0.00115100,-0.00247317,-0.00290
 868,0.14424844,0.18353331,-0.40039624,-0.16081599,-0.25922544,0.455590
 54,-0.00003570,-0.00005518,-0.00004776,-0.00000373,-0.00003375,-0.0001
 0315,0.00000467,0.00002950,-0.00001067,-0.00052306,-0.00012814,-0.0000
 8825,-0.00004134,0.00015639,0.00001255,-0.00000730,0.00008645,-0.00004
 405,-0.00229998,0.00076088,0.00112353,0.00022706,-0.00039740,0.0000799
 4,0.00035521,-0.00033587,0.00024586,0.00006534,0.00003208,0.00007176,-
 0.00001011,0.00001541,-0.00000022,-0.00056287,0.00047838,-0.00038911,0
 .00008404,0.00001983,-0.00045954,-0.00003719,0.00000398,0.00003464,-0.
 01910126,0.01385776,0.01001022,0.00241288,0.00238900,0.00022877,-0.165
 35460,0.02719408,0.03376553,-0.00803227,0.00267594,0.02366897,0.501883
 93,0.00007537,0.00001862,0.00007323,0.00000977,0.00006500,0.00000633,-
 0.00001854,0.00000736,-0.00000378,0.00039635,0.00024012,-0.00020255,-0
 .00004932,-0.00017499,-0.00000145,-0.00008312,-0.00000222,0.00001641,0
 .00030182,-0.00143021,-0.00091064,0.00168393,-0.00087703,0.00067352,-0
 .00007600,0.00085188,-0.00078222,-0.00008079,-0.00000654,-0.00006989,0
 .00001248,0.00000233,0.00000076,0.00028126,-0.00043258,0.00028222,-0.0
 0015142,-0.00004908,0.00023532,0.00000925,0.00002510,-0.00006145,0.031
 22627,-0.00384933,-0.01017896,0.00329047,-0.00116766,0.00369496,0.0279
 7179,-0.10225286,-0.01346605,-0.01280884,0.01527099,0.01989156,0.00152
 816,0.57755364,0.00001421,-0.00003851,-0.00006187,0.00000282,0.0000199
 7,0.00000574,0.00002510,0.00000426,-0.00000636,-0.00051084,-0.00004473
 ,-0.00008124,0.00000110,0.00018845,-0.00001592,0.00004388,0.00000437,-
 0.00001822,-0.00060055,0.00093138,-0.00080558,-0.00106475,-0.00015994,
 0.00016249,-0.00020172,0.00050298,0.00032618,0.00000830,-0.00000862,0.
 00002346,0.00000177,-0.00000038,-0.00000117,0.00030396,-0.00028166,-0.
 00003859,-0.00005929,0.00000569,0.00011545,-0.00002955,0.00000281,0.00
 002300,-0.00705803,0.00289804,0.01319133,-0.00121613,0.00507034,0.0009
 6336,0.03193563,-0.01129146,-0.10694643,0.04069936,0.00590973,-0.01923
 702,0.03770742,-0.04038759,0.55659868,-0.00000752,-0.00001682,0.000081
 06,0.00000078,0.00000673,-0.00003741,0.00003111,0.00000562,-0.00001295
 ,0.00035421,0.00016874,-0.00012071,0.00008229,-0.00016728,0.00000818,-
 0.00001880,0.00001747,0.00000352,-0.00088032,-0.00037202,0.00006078,-0
 .00021916,0.00131946,-0.00091910,-0.00003133,-0.00044229,-0.00038835,-
 0.00002156,0.00000600,-0.00004133,0.00000734,0.00000224,-0.00000094,-0
 .00006731,0.00036001,0.00003146,0.00002046,0.00002403,0.00004671,0.000
 00868,0.00000859,-0.00001464,0.00048782,0.00204276,0.00077364,0.000512
 75,0.00038513,0.00047171,-0.01615522,-0.02627929,0.00046854,-0.0023355
 3,0.00268642,0.00265493,-0.15297052,-0.12852260,0.00630257,0.16472902,
 -0.00004629,0.00003287,-0.00000019,0.00000530,0.00000529,0.00000683,-0
 .00000472,-0.00001500,0.00000346,0.00027674,0.00009247,0.00001795,0.00
 003174,-0.00007268,0.00000017,-0.00000221,0.00001413,0.00000317,0.0015
 5761,-0.00046691,-0.00014928,0.00071487,-0.00029072,0.00054182,-0.0004
 6283,-0.00013737,0.00016034,0.00000395,-0.00000290,0.00000167,-0.00000
 326,0.00000211,0.00000105,-0.00003595,0.00006497,-0.00005676,0.0000562
 1,0.00002499,-0.00007892,0.00001345,-0.00000921,0.00001424,-0.00048852
 ,-0.00104019,0.00066531,-0.00042839,-0.00017104,-0.00034253,0.00793856
 ,0.00908737,0.00169313,-0.00038022,-0.00018835,-0.00219239,-0.12782275
 ,-0.20929489,0.00913968,0.14145742,0.22823955,0.00004444,0.00000002,0.
 00002814,-0.00000169,0.00000196,0.00000077,-0.00001042,0.00000279,0.00
 000529,0.00003172,0.00008747,0.00000558,0.00004172,-0.00003489,-0.0000
 2446,0.00000728,-0.00002862,0.00000316,-0.00070741,-0.00022851,0.00050
 789,-0.00023663,0.00078198,0.00004033,-0.00014080,-0.00053226,-0.00034
 474,-0.00002729,-0.00000675,-0.00003490,0.00000098,-0.00000120,0.00000
 128,-0.00021383,0.00035853,-0.00006690,0.00004542,0.00005868,0.0000992
 0,-0.00000282,0.00000003,0.00000730,-0.00106199,-0.00005377,-0.0003112
 5,-0.00014822,-0.00002925,-0.00022129,0.01149569,0.01490933,-0.0024714
 3,0.00229820,-0.00246498,-0.00269101,0.00720649,0.01034955,-0.04347668
 ,-0.00964202,-0.01057701,0.04751988,0.00005348,-0.00006129,0.00006633,
 -0.00000032,-0.00000001,-0.00002507,-0.00000003,-0.00000477,-0.0000017
 3,-0.00013199,0.00005546,-0.00013686,0.00001159,-0.00002154,0.00002234
 ,0.00000095,0.00002208,-0.00000090,0.00036743,0.00068323,0.00030249,-0
 .00032250,0.00025021,-0.00022285,0.00003676,0.00267440,-0.00115449,-0.
 00002145,-0.00000291,-0.00004036,0.00000244,0.00000307,-0.00000080,-0.
 00004640,-0.00135067,0.00015763,-0.00028921,-0.00047104,0.00055241,-0.
 00000568,-0.00000999,-0.00014419,-0.00098634,-0.00036479,-0.00167991,-
 0.00031299,-0.00076810,-0.00047983,0.00806098,0.00988061,0.03206020,-0
 .00517154,-0.00144034,0.00017845,-0.05557613,-0.01205295,-0.04703330,-
 0.00360123,-0.00625079,-0.02045970,0.06071176,-0.00010674,0.00005631,-
 0.00008831,0.00000370,-0.00000128,0.00002655,0.00001136,-0.00000515,0.
 00000126,-0.00006078,-0.00021492,0.00014635,-0.00007438,0.00011242,0.0
 0000718,-0.00000454,0.00000142,-0.00000341,0.00013722,0.00002983,-0.00
 090369,-0.00031692,-0.00064910,-0.00021654,0.00057644,-0.00097503,0.00
 148336,0.00005147,-0.00000190,0.00006759,-0.00000394,-0.00000141,0.000
 00033,-0.00020103,0.00037874,-0.00023358,0.00014861,0.00009038,-0.0003
 5834,0.00002886,-0.00001860,0.00008715,0.00160094,-0.00032260,0.000540
 24,0.00012327,0.00024505,0.00028394,-0.00341490,-0.00271939,-0.0071465
 5,-0.00039074,-0.00002641,0.00019151,-0.01229087,-0.07193077,-0.076459
 43,-0.00516568,-0.00826793,-0.02558491,0.01479550,0.07531613,-0.000016
 78,0.00002357,-0.00000614,-0.00000047,0.00000370,0.00000537,0.00000050
 ,-0.00000131,-0.00000069,-0.00006553,-0.00007114,0.00008049,-0.0000094
 5,0.00003515,0.00000397,0.00000110,-0.00001985,0.00000094,0.00003851,0
 .00014267,0.00025178,-0.00026086,0.00005526,0.00001637,-0.00058426,-0.
 00027011,-0.00003911,0.00001000,0.00000538,0.00000811,-0.00000167,-0.0
 0000235,0.00000057,-0.00078293,0.00075449,-0.00067720,0.00013097,0.000
 09607,-0.00007016,-0.00001545,-0.00001693,0.00002197,0.00025455,0.0005
 5954,0.00052213,0.00024687,0.00015686,0.00014798,-0.00350540,-0.002204
 82,-0.01550705,0.00311049,-0.00100951,0.00017549,-0.04800533,-0.077451
 30,-0.27925220,0.00086427,0.00201047,0.00175801,0.05111496,0.08391330,
 0.30649060,-0.00004958,0.00000120,0.00000602,-0.00000006,-0.00001260,-
 0.00003834,0.00001094,0.00000605,-0.00000511,0.00018673,0.00004985,-0.
 00008954,0.00005250,-0.00004145,0.00000639,-0.00000356,0.00004629,-0.0
 0000858,-0.00007196,-0.00116435,0.00090427,0.00019084,0.00015507,-0.00
 009258,-0.00004897,-0.00038834,0.00029444,0.00002540,0.00001295,0.0000
 1804,-0.00000345,0.00000493,-0.00000056,-0.00012899,0.00021533,-0.0002
 1468,0.00005322,0.00006277,-0.00021886,0.00000263,-0.00000192,0.000006
 34,-0.00471801,0.00063537,0.00450179,-0.00040771,0.00126695,-0.0003776
 4,-0.01635861,0.02619527,-0.01878550,0.00372452,-0.00210619,-0.0009582
 5,-0.10044723,0.08704291,-0.05926637,0.01006686,-0.01612940,0.01147237
 ,-0.00278312,0.00456518,-0.00252547,0.11071602,0.00002668,0.00001750,0
 .00004266,-0.00000368,0.00001361,0.00001182,-0.00000071,0.00000461,-0.
 00000372,0.00015105,0.00008463,0.00005730,0.00001798,-0.00007967,-0.00
 000423,-0.00000109,-0.00003842,0.00000759,-0.00016930,0.00003230,-0.00
 048186,0.00010367,0.00032648,-0.00022400,-0.00008519,-0.00039128,-0.00
 029743,-0.00002941,-0.00000329,-0.00003335,0.00000435,-0.00000370,-0.0
 0000027,-0.00006899,0.00026012,0.00006830,0.00002647,0.00002797,0.0001
 5219,0.00000275,0.00000021,0.00000716,0.00165623,0.00084175,-0.0005802
 5,0.00034453,-0.00004120,0.00038254,0.00168607,-0.00917981,0.00665540,
 -0.00198507,0.00162927,-0.00061606,0.09178985,-0.20252392,0.10398647,0
 .01249926,-0.01761268,0.01300554,-0.00554884,0.00886928,-0.00671097,-0
 .10042765,0.21778626,-0.00004928,0.00002431,-0.00003265,0.00000135,0.0
 0000512,0.00000583,0.00000195,-0.00000292,-0.00000151,-0.00001133,-0.0
 0017813,0.00010515,-0.00004421,0.00005404,0.00001625,-0.00000330,-0.00
 000193,-0.00000284,0.00030698,0.00026138,-0.00043855,-0.00037956,-0.00
 007446,-0.00013776,0.00006797,-0.00056786,0.00055222,0.00002682,0.0000
 0741,0.00003494,-0.00000288,-0.00000051,-0.00000001,-0.00022494,0.0003
 7989,-0.00022831,0.00009809,0.00010132,-0.00023793,0.00000210,-0.00000
 959,0.00004318,0.00330535,0.00000955,-0.00148131,0.00053056,-0.0004372
 6,0.00047571,0.01106021,-0.01541184,0.00655280,-0.00139611,-0.00041052
 ,0.00125278,-0.06499316,0.10828306,-0.12147456,-0.00059225,-0.00086275
 ,-0.00033496,-0.01307483,0.02424276,-0.01392722,0.06537735,-0.11542737
 ,0.12926427,0.00153464,0.00809993,0.01603121,0.00037987,0.00343490,-0.
 00263109,-0.00158763,0.00298367,0.00107135,-0.00263242,0.00125117,-0.0
 0221005,0.00023178,-0.00009073,-0.00016540,-0.00028409,-0.00032489,-0.
 00032046,0.00052955,0.00079769,0.00056980,0.00020967,-0.00011570,0.000
 01932,-0.00018647,0.00028146,-0.00034828,-0.09261072,-0.01435085,-0.05
 934366,-0.00705594,-0.01691231,-0.01947899,0.00013341,0.00014883,0.000
 20001,0.00002105,-0.00001584,0.00011922,0.00001570,0.00000503,0.000003
 14,-0.00015195,0.00049000,0.00008928,-0.00008664,-0.00010493,-0.000017
 70,0.00018526,-0.00032729,0.00025635,0.00001802,0.00015030,-0.00021813
 ,-0.00002960,0.00000971,-0.00000679,0.00000134,0.00000142,0.00001056,0
 .00000090,-0.00000950,0.00000167,-0.00000794,0.00001036,-0.00000431,0.
 34012043,-0.00403852,-0.03444053,-0.02864871,-0.00131997,0.00324480,-0
 .00158291,-0.00312446,0.00429028,0.00015206,0.00284132,-0.00388236,0.0
 0104635,0.00006821,-0.00009816,0.00008083,0.00017874,0.00005891,-0.000
 04756,-0.00034411,-0.00049414,-0.00084718,-0.00000132,-0.00007130,-0.0
 0009803,-0.00009832,-0.00057826,-0.00061421,-0.01183415,-0.23552398,-0
 .15453165,0.00437994,0.00295331,0.01149045,0.00016388,0.00032283,0.000
 20154,-0.00005183,0.00009174,0.00033465,0.00000278,0.00004508,-0.00003
 375,-0.00038116,0.00136793,0.00021544,-0.00024755,-0.00041311,-0.00003
 822,0.00044674,-0.00082517,0.00062715,0.00005627,0.00038366,-0.0005060
 8,-0.00007910,0.00003045,-0.00001204,0.00001253,-0.00000097,0.00001791
 ,-0.00000070,-0.00001371,0.00000199,-0.00002202,0.00002623,-0.00001332
 ,-0.07526688,0.58095725,0.00593314,-0.01236422,-0.00315915,-0.00158548
 ,0.00720233,-0.00122198,-0.00699291,0.00543646,0.00165457,-0.00150107,
 0.00062529,-0.00270872,0.00000579,-0.00044519,-0.00058367,-0.00011441,
 -0.00049596,-0.00009576,-0.00012005,0.00132693,0.00170265,0.00012282,-
 0.00030939,-0.00014053,-0.00089827,-0.00040610,-0.00173535,-0.05707006
 ,-0.15589459,-0.26573932,-0.00310495,-0.02073505,-0.02206270,0.0006257
 6,0.00081878,0.00056567,-0.00003360,-0.00006544,0.00071630,0.00001999,
 0.00004487,-0.00005973,-0.00057653,0.00133029,0.00035729,-0.00020753,-
 0.00046722,-0.00004820,0.00059599,-0.00115910,0.00083779,0.00007545,0.
 00053739,-0.00069150,-0.00010606,0.00006935,-0.00000929,0.00003006,-0.
 00000525,0.00002876,0.00001196,-0.00003501,-0.00000892,-0.00003153,0.0
 0003839,-0.00002888,0.16146096,0.19584082,0.57068760,-0.00243543,0.003
 72844,0.00399224,-0.00042649,-0.00276903,0.00130599,0.00249096,-0.0023
 4176,-0.00061682,0.00118722,0.00052334,0.00084659,0.00006273,0.0003523
 6,0.00031102,-0.00001612,0.00021610,0.00018866,-0.00005314,-0.00026740
 ,-0.00027919,-0.00005063,0.00004636,0.00001593,0.00023131,0.00011252,0
 .00049917,-0.01184569,-0.00219573,-0.04027520,0.00638629,0.00167029,-0
 .00169992,-0.00016471,-0.00022408,-0.00017658,0.00001318,-0.00000320,-
 0.00021196,-0.00000916,-0.00001742,0.00001503,0.00022952,-0.00065114,-
 0.00012390,0.00010696,0.00020142,0.00002465,-0.00025518,0.00043433,-0.
 00033284,-0.00002183,-0.00020184,0.00027159,0.00004103,-0.00002182,0.0
 0000588,-0.00000514,-0.00000035,-0.00001202,-0.00000223,0.00001195,0.0
 0000139,0.00001196,-0.00001376,0.00000813,-0.13519266,0.02172632,-0.08
 675915,0.15622292,-0.00521052,-0.00255256,-0.00340028,-0.00014676,0.00
 263387,-0.00052900,-0.00114309,0.00120141,0.00145811,-0.00035981,0.000
 85847,-0.00208766,-0.00011267,-0.00039769,-0.00024980,-0.00022702,-0.0
 0057921,-0.00052713,-0.00024169,0.00032091,-0.00007953,0.00005174,0.00
 004372,0.00002574,0.00020446,0.00015675,0.00029732,-0.00835090,0.01366
 496,-0.01372644,0.00033132,-0.00014476,-0.00566947,-0.00013109,-0.0001
 4718,-0.00011230,0.00001641,-0.00007729,-0.00017177,-0.00000365,-0.000
 02696,0.00002288,0.00011528,-0.00031382,0.00004733,0.00008491,0.000122
 28,0.00000854,-0.00016445,0.00026326,-0.00016297,-0.00000828,-0.000126
 29,0.00014616,0.00002321,-0.00001436,0.00000619,-0.00000792,0.00000290
 ,-0.00000525,-0.00000335,0.00001069,-0.00000137,0.00000583,-0.00000913
 ,0.00000510,0.02323517,-0.09852227,0.00523543,-0.04830141,0.09519894,-
 0.00198293,0.00730804,-0.00071453,0.00095668,-0.00260604,0.00100213,0.
 00304142,-0.00183957,0.00019205,0.00006172,0.00053339,0.00096697,-0.00
 006572,0.00005806,0.00002201,-0.00004994,0.00013938,0.00012963,-0.0001
 1868,-0.00019738,-0.00066860,-0.00003332,0.00012282,0.00007918,0.00049
 436,0.00031200,0.00098799,-0.04591235,-0.00417602,-0.05305898,-0.00278
 114,-0.00411365,0.00142115,-0.00034144,-0.00045256,-0.00033780,0.00002
 555,-0.00003480,-0.00042737,-0.00001510,-0.00003808,0.00003894,0.00038
 638,-0.00095067,-0.00013684,0.00013757,0.00026707,0.00001273,-0.000419
 13,0.00073242,-0.00052368,-0.00003763,-0.00034710,0.00045091,0.0000670
 9,-0.00004262,0.00001260,-0.00002040,0.00000424,-0.00002047,-0.0000077
 5,0.00002696,0.00000288,0.00001847,-0.00002628,0.00001637,-0.08590213,
 0.00373290,-0.18447185,0.14749896,-0.01886991,0.22483945,0.00552207,0.
 00025476,-0.00517825,-0.00050856,0.00188845,0.00116435,-0.00084848,-0.
 00008341,0.00037149,-0.00019838,0.00017555,-0.00074963,0.00009087,-0.0
 0003095,-0.00006534,0.00005130,-0.00011550,0.00009011,0.00008893,0.000
 07701,0.00044523,-0.00001733,-0.00008386,-0.00004815,-0.00034094,-0.00
 022288,-0.00063925,0.01336175,0.01300524,0.00736666,-0.00126817,-0.001
 90605,0.00241944,0.00022417,0.00027980,0.00020548,-0.00001625,0.000011
 00,0.00027749,0.00000655,0.00002457,-0.00002651,-0.00022769,0.00057261
 ,0.00011372,-0.00011406,-0.00021173,-0.00002051,0.00025005,-0.00046486
 ,0.00033189,0.00003048,0.00021635,-0.00026948,-0.00004129,0.00002584,-
 0.00000469,0.00001097,-0.00000160,0.00000998,0.00000486,-0.00001448,-0
 .00000166,-0.00001243,0.00001444,-0.00001072,-0.10355556,0.06693339,-0
 .00978034,-0.01650567,0.04034427,-0.01500054,0.10401281,0.00114080,0.0
 0592271,-0.00200988,0.00017029,-0.00225684,0.00033362,0.00244770,-0.00
 431436,-0.00157596,0.00178785,-0.00019147,0.00165186,-0.00036508,0.000
 11641,0.00011888,-0.00006084,0.00024374,-0.00005047,-0.00050458,-0.000
 40484,-0.00122230,-0.00010674,0.00027517,0.00012032,0.00076480,0.00034
 727,0.00153643,0.02178899,-0.05667566,-0.02236019,-0.00065521,0.000036
 96,0.00159111,-0.00053558,-0.00068698,-0.00054515,0.00003226,-0.000039
 36,-0.00066574,-0.00002252,-0.00005802,0.00005895,0.00054640,-0.001401
 08,-0.00018467,0.00025450,0.00044465,0.00004151,-0.00062803,0.00111659
 ,-0.00079146,-0.00006097,-0.00052538,0.00066332,0.00010214,-0.00005903
 ,0.00001402,-0.00002849,0.00000420,-0.00002639,-0.00001249,0.00003793,
 0.00000122,0.00002797,-0.00003710,0.00002451,0.06661928,-0.21890851,-0
 .02612382,0.02798552,-0.01156665,0.02045740,-0.12068796,0.28857965,-0.
 00518584,-0.00218554,0.00028974,0.00037373,-0.00152587,-0.00025682,0.0
 0083254,0.00042959,-0.00005055,0.00086719,-0.00067664,0.00099392,-0.00
 004473,0.00002560,0.00006058,-0.00000739,0.00014505,0.00000060,-0.0001
 8688,-0.00033243,-0.00060389,-0.00001737,0.00007764,0.00001957,0.00029
 807,0.00003700,0.00046883,0.01473985,-0.03630600,0.00782775,0.00316101
 ,0.00006977,0.00137706,-0.00018257,-0.00020634,-0.00016302,0.00000275,
 0.00001234,-0.00018277,-0.00000900,-0.00001092,0.00001573,0.00014142,-
 0.00031016,-0.00007954,0.00005532,0.00010249,0.00001134,-0.00015718,0.
 00028817,-0.00020341,-0.00001715,-0.00013383,0.00017081,0.00002454,-0.
 00001775,0.00000286,-0.00000733,0.00000158,-0.00000752,-0.00000419,0.0
 0001128,0.00000206,0.00000753,-0.00000957,0.00000701,-0.00918588,-0.02
 676842,-0.09378508,-0.02449766,0.03834008,0.01018513,0.01899923,0.0289
 4289,0.07389960\\0.00000265,-0.00000252,-0.00000307,0.00000408,-0.0000
 0022,0.00000120,0.00000036,0.00000154,-0.00000070,-0.00000580,0.000003
 26,0.00000475,-0.00000132,-0.00000104,0.00000434,-0.00000347,-0.000001
 21,0.00000041,0.00000461,-0.00000147,0.00000224,-0.00000442,-0.0000002
 7,-0.00000311,-0.00000309,0.00000168,-0.00000376,0.00000185,0.00000397
 ,0.00000578,-0.00000116,-0.00000106,0.00000429,-0.00000643,-0.00000023
 ,0.00000461,-0.00000871,0.00000036,0.00000324,-0.00001114,-0.00000053,
 0.00000052,0.00000214,-0.00000177,-0.00000018,0.00000280,0.00000003,0.
 00000473,0.00000444,0.00000218,-0.00000679,0.00000543,-0.00000220,0.00
 000286,0.00000168,0.00000255,0.00000050,0.00000158,-0.00000027,-0.0000
 0816,-0.00000163,-0.00000030,-0.00000543,0.00000357,0.00000058,-0.0000
 0597,0.00000672,-0.00000480,-0.00000336,0.00000523,-0.00000142,-0.0000
 0241,0.00000002,0.00000316,0.00000348\\\@


 THE RED LIGHT IS ALWAYS LONGER THAN THE GREEN LIGHT.

                     -- PETER'S THEORY OF RELATIVITY
 Job cpu time:       0 days  0 hours 17 minutes 38.6 seconds.
 Elapsed time:       0 days  0 hours  4 minutes 26.8 seconds.
 File lengths (MBytes):  RWF=    162 Int=      0 D2E=      0 Chk=     11 Scr=      1
 Normal termination of Gaussian 16 at Wed Feb 28 19:40:20 2018.
