 Entering Gaussian System, Link 0=g16
 Input=glut_nitro_anion_rot_freeze.gjf
 Output=glut_nitro_anion_rot_freeze.out
 Initial command:
 /n/sw/g16_nehalem/g16/l1.exe "/scratch/dhuang9_glut_nitro_anion_rot_freeze/Gau-163482.inp" -scrdir="/scratch/dhuang9_glut_nitro_anion_rot_freeze/"
 Entering Link 1 = /n/sw/g16_nehalem/g16/l1.exe PID=    163483.
  
 Copyright (c) 1988,1990,1992,1993,1995,1998,2003,2009,2016,
            Gaussian, Inc.  All Rights Reserved.
  
 This is part of the Gaussian(R) 16 program.  It is based on
 the Gaussian(R) 09 system (copyright 2009, Gaussian, Inc.),
 the Gaussian(R) 03 system (copyright 2003, Gaussian, Inc.),
 the Gaussian(R) 98 system (copyright 1998, Gaussian, Inc.),
 the Gaussian(R) 94 system (copyright 1995, Gaussian, Inc.),
 the Gaussian 92(TM) system (copyright 1992, Gaussian, Inc.),
 the Gaussian 90(TM) system (copyright 1990, Gaussian, Inc.),
 the Gaussian 88(TM) system (copyright 1988, Gaussian, Inc.),
 the Gaussian 86(TM) system (copyright 1986, Carnegie Mellon
 University), and the Gaussian 82(TM) system (copyright 1983,
 Carnegie Mellon University). Gaussian is a federally registered
 trademark of Gaussian, Inc.
  
 This software contains proprietary and confidential information,
 including trade secrets, belonging to Gaussian, Inc.
  
 This software is provided under written license and may be
 used, copied, transmitted, or stored only in accord with that
 written license.
  
 The following legend is applicable only to US Government
 contracts under FAR:
  
                    RESTRICTED RIGHTS LEGEND
  
 Use, reproduction and disclosure by the US Government is
 subject to restrictions as set forth in subparagraphs (a)
 and (c) of the Commercial Computer Software - Restricted
 Rights clause in FAR 52.227-19.
  
 Gaussian, Inc.
 340 Quinnipiac St., Bldg. 40, Wallingford CT 06492
  
  
 ---------------------------------------------------------------
 Warning -- This program may not be used in any manner that
 competes with the business of Gaussian, Inc. or will provide
 assistance to any competitor of Gaussian, Inc.  The licensee
 of this program is prohibited from giving any competitor of
 Gaussian, Inc. access to this program.  By using this program,
 the user acknowledges that Gaussian, Inc. is engaged in the
 business of creating and licensing software in the field of
 computational chemistry and represents and warrants to the
 licensee that it is not a competitor of Gaussian, Inc. and that
 it will not use this program in any manner prohibited above.
 ---------------------------------------------------------------
  

 Cite this work as:
 Gaussian 16, Revision A.03,
 M. J. Frisch, G. W. Trucks, H. B. Schlegel, G. E. Scuseria, 
 M. A. Robb, J. R. Cheeseman, G. Scalmani, V. Barone, 
 G. A. Petersson, H. Nakatsuji, X. Li, M. Caricato, A. V. Marenich, 
 J. Bloino, B. G. Janesko, R. Gomperts, B. Mennucci, H. P. Hratchian, 
 J. V. Ortiz, A. F. Izmaylov, J. L. Sonnenberg, D. Williams-Young, 
 F. Ding, F. Lipparini, F. Egidi, J. Goings, B. Peng, A. Petrone, 
 T. Henderson, D. Ranasinghe, V. G. Zakrzewski, J. Gao, N. Rega, 
 G. Zheng, W. Liang, M. Hada, M. Ehara, K. Toyota, R. Fukuda, 
 J. Hasegawa, M. Ishida, T. Nakajima, Y. Honda, O. Kitao, H. Nakai, 
 T. Vreven, K. Throssell, J. A. Montgomery, Jr., J. E. Peralta, 
 F. Ogliaro, M. J. Bearpark, J. J. Heyd, E. N. Brothers, K. N. Kudin, 
 V. N. Staroverov, T. A. Keith, R. Kobayashi, J. Normand, 
 K. Raghavachari, A. P. Rendell, J. C. Burant, S. S. Iyengar, 
 J. Tomasi, M. Cossi, J. M. Millam, M. Klene, C. Adamo, R. Cammi, 
 J. W. Ochterski, R. L. Martin, K. Morokuma, O. Farkas, 
 J. B. Foresman, and D. J. Fox, Gaussian, Inc., Wallingford CT, 2016.
 
 ******************************************
 Gaussian 16:  ES64L-G16RevA.03 25-Dec-2016
                28-Feb-2018 
 ******************************************
 %nprocshared=5
 Will use up to    5 processors via shared memory.
 %mem=4GB
 ----------------------------------------------------------------------
 #p b3lyp empiricaldispersion=gd3bj 6-31g scrf=(pcm,solvent=water) opt 
 freq=noraman
 ----------------------------------------------------------------------
 1/18=20,19=15,26=3,38=1/1,3;
 2/9=110,12=2,17=6,18=5,40=1/2;
 3/5=1,6=6,11=2,25=1,30=1,70=2201,71=1,72=1,74=-5,124=41/1,2,3;
 4//1;
 5/5=2,38=5,53=1/2;
 6/7=2,8=2,9=2,10=2,28=1/1;
 7//1,2,3,16;
 1/18=20,19=15,26=3/3(2);
 2/9=110/2;
 99//99;
 2/9=110/2;
 3/5=1,6=6,11=2,25=1,30=1,70=2205,71=1,72=1,74=-5,124=41/1,2,3;
 4/5=5,16=3,69=1/1;
 5/5=2,38=5,53=1/2;
 7//1,2,3,16;
 1/18=20,19=15,26=3/3(-5);
 2/9=110/2;
 6/7=2,8=2,9=2,10=2,19=2,28=1/1;
 99/9=1/99;
 Leave Link    1 at Wed Feb 28 21:23:28 2018, MaxMem=   536870912 cpu:               0.2 elap:               0.1
 (Enter /n/sw/g16_nehalem/g16/l101.exe)
 ---------------------------
 Glutamic Acid Nitro Rotamer
 ---------------------------
 Symbolic Z-matrix:
 Charge = -1 Multiplicity = 1
 C                    -3.16976   0.62334   0. 
 H                    -2.81309   1.12774  -0.87365 
 H                    -4.23976   0.62336   0. 
 C                    -2.65642   1.3493    1.2574 
 H                    -1.58642   1.34929   1.2574 
 H                    -3.01309   0.8449    2.13106 
 C                    -3.16974   2.80123   1.25741 
 H                    -4.23973   2.80124   1.25545 
 C                    -2.65869   3.52637   2.51622 
 C                    -2.65645  -0.82859   0. 
 H                    -2.03994  -1.17613   0.80252 
 O                    -2.95985   4.73118   2.71947 
 O                    -1.83911   2.82822   3.45737 
 H                    -1.60674   3.4173    4.17889 
 N                    -2.67753   3.49497   0.0585 
 N                    -2.96804  -1.62949  -0.96689 
 O                    -2.51175  -1.12006  -2.14242 
 O                    -4.32003  -1.76462  -1.02576 
 H                    -3.39685   4.08888  -0.30185 
 C                    -1.50258   4.30575   0.40923 
 O                    -1.02544   5.12208  -0.42114 
 C                    -0.85336   4.15562   1.7976 
 H                    -1.3668    4.77778   2.50058 
 H                    -0.91621   3.13486   2.11223 
 H                     0.17401   4.44991   1.74463 
 
 ITRead=  0  0  0  0  0  0  0  0  0  0  0  0  0  0  0  0  0  0  0  0
 ITRead=  0  0  0  0  0
 MicOpt= -1 -1 -1 -1 -1 -1 -1 -1 -1 -1 -1 -1 -1 -1 -1 -1 -1 -1 -1 -1
 MicOpt= -1 -1 -1 -1 -1
 NAtoms=     25 NQM=       25 NQMF=       0 NMMI=      0 NMMIF=      0
                NMic=       0 NMicF=      0.
                    Isotopes and Nuclear Properties:
 (Nuclear quadrupole moments (NQMom) in fm**2, nuclear magnetic moments (NMagM)
  in nuclear magnetons)

  Atom         1           2           3           4           5           6           7           8           9          10
 IAtWgt=          12           1           1          12           1           1          12           1          12          12
 AtmWgt=  12.0000000   1.0078250   1.0078250  12.0000000   1.0078250   1.0078250  12.0000000   1.0078250  12.0000000  12.0000000
 NucSpn=           0           1           1           0           1           1           0           1           0           0
 AtZEff=   0.0000000   0.0000000   0.0000000   0.0000000   0.0000000   0.0000000   0.0000000   0.0000000   0.0000000   0.0000000
 NQMom=    0.0000000   0.0000000   0.0000000   0.0000000   0.0000000   0.0000000   0.0000000   0.0000000   0.0000000   0.0000000
 NMagM=    0.0000000   2.7928460   2.7928460   0.0000000   2.7928460   2.7928460   0.0000000   2.7928460   0.0000000   0.0000000
 AtZNuc=   6.0000000   1.0000000   1.0000000   6.0000000   1.0000000   1.0000000   6.0000000   1.0000000   6.0000000   6.0000000

  Atom        11          12          13          14          15          16          17          18          19          20
 IAtWgt=           1          16          16           1          14          14          16          16           1          12
 AtmWgt=   1.0078250  15.9949146  15.9949146   1.0078250  14.0030740  14.0030740  15.9949146  15.9949146   1.0078250  12.0000000
 NucSpn=           1           0           0           1           2           2           0           0           1           0
 AtZEff=   0.0000000   0.0000000   0.0000000   0.0000000   0.0000000   0.0000000   0.0000000   0.0000000   0.0000000   0.0000000
 NQMom=    0.0000000   0.0000000   0.0000000   0.0000000   2.0440000   2.0440000   0.0000000   0.0000000   0.0000000   0.0000000
 NMagM=    2.7928460   0.0000000   0.0000000   2.7928460   0.4037610   0.4037610   0.0000000   0.0000000   2.7928460   0.0000000
 AtZNuc=   1.0000000   8.0000000   8.0000000   1.0000000   7.0000000   7.0000000   8.0000000   8.0000000   1.0000000   6.0000000

  Atom        21          22          23          24          25
 IAtWgt=          16          12           1           1           1
 AtmWgt=  15.9949146  12.0000000   1.0078250   1.0078250   1.0078250
 NucSpn=           0           0           1           1           1
 AtZEff=   0.0000000   0.0000000   0.0000000   0.0000000   0.0000000
 NQMom=    0.0000000   0.0000000   0.0000000   0.0000000   0.0000000
 NMagM=    0.0000000   0.0000000   2.7928460   2.7928460   2.7928460
 AtZNuc=   8.0000000   6.0000000   1.0000000   1.0000000   1.0000000
 Leave Link  101 at Wed Feb 28 21:23:29 2018, MaxMem=   536870912 cpu:               1.3 elap:               0.3
 (Enter /n/sw/g16_nehalem/g16/l103.exe)

 GradGradGradGradGradGradGradGradGradGradGradGradGradGradGradGradGradGrad
 Berny optimization.
 Initialization pass.
                           ----------------------------
                           !    Initial Parameters    !
                           ! (Angstroms and Degrees)  !
 --------------------------                            --------------------------
 ! Name  Definition              Value          Derivative Info.                !
 --------------------------------------------------------------------------------
 ! R1    R(1,2)                  1.07           estimate D2E/DX2                !
 ! R2    R(1,3)                  1.07           estimate D2E/DX2                !
 ! R3    R(1,4)                  1.54           estimate D2E/DX2                !
 ! R4    R(1,10)                 1.54           estimate D2E/DX2                !
 ! R5    R(4,5)                  1.07           estimate D2E/DX2                !
 ! R6    R(4,6)                  1.07           estimate D2E/DX2                !
 ! R7    R(4,7)                  1.54           estimate D2E/DX2                !
 ! R8    R(7,8)                  1.07           estimate D2E/DX2                !
 ! R9    R(7,9)                  1.54           estimate D2E/DX2                !
 ! R10   R(7,15)                 1.47           estimate D2E/DX2                !
 ! R11   R(9,12)                 1.2584         estimate D2E/DX2                !
 ! R12   R(9,13)                 1.43           estimate D2E/DX2                !
 ! R13   R(10,11)                1.07           estimate D2E/DX2                !
 ! R14   R(10,16)                1.2936         estimate D2E/DX2                !
 ! R15   R(13,14)                0.96           estimate D2E/DX2                !
 ! R16   R(15,19)                1.0            estimate D2E/DX2                !
 ! R17   R(15,20)                1.47           estimate D2E/DX2                !
 ! R18   R(16,17)                1.36           estimate D2E/DX2                !
 ! R19   R(16,18)                1.36           estimate D2E/DX2                !
 ! R20   R(20,21)                1.2584         estimate D2E/DX2                !
 ! R21   R(20,22)                1.54           estimate D2E/DX2                !
 ! R22   R(22,23)                1.07           estimate D2E/DX2                !
 ! R23   R(22,24)                1.07           estimate D2E/DX2                !
 ! R24   R(22,25)                1.07           estimate D2E/DX2                !
 ! A1    A(2,1,3)              109.4712         estimate D2E/DX2                !
 ! A2    A(2,1,4)              109.4713         estimate D2E/DX2                !
 ! A3    A(2,1,10)             109.4712         estimate D2E/DX2                !
 ! A4    A(3,1,4)              109.4712         estimate D2E/DX2                !
 ! A5    A(3,1,10)             109.4712         estimate D2E/DX2                !
 ! A6    A(4,1,10)             109.4712         estimate D2E/DX2                !
 ! A7    A(1,4,5)              109.4712         estimate D2E/DX2                !
 ! A8    A(1,4,6)              109.4712         estimate D2E/DX2                !
 ! A9    A(1,4,7)              109.4712         estimate D2E/DX2                !
 ! A10   A(5,4,6)              109.4712         estimate D2E/DX2                !
 ! A11   A(5,4,7)              109.4713         estimate D2E/DX2                !
 ! A12   A(6,4,7)              109.4712         estimate D2E/DX2                !
 ! A13   A(4,7,8)              109.4712         estimate D2E/DX2                !
 ! A14   A(4,7,9)              109.4712         estimate D2E/DX2                !
 ! A15   A(4,7,15)             109.4712         estimate D2E/DX2                !
 ! A16   A(8,7,9)              109.4713         estimate D2E/DX2                !
 ! A17   A(8,7,15)             109.4712         estimate D2E/DX2                !
 ! A18   A(9,7,15)             109.4712         estimate D2E/DX2                !
 ! A19   A(7,9,12)             120.2269         estimate D2E/DX2                !
 ! A20   A(7,9,13)             119.8865         estimate D2E/DX2                !
 ! A21   A(12,9,13)            119.8865         estimate D2E/DX2                !
 ! A22   A(1,10,11)            119.8865         estimate D2E/DX2                !
 ! A23   A(1,10,16)            120.2269         estimate D2E/DX2                !
 ! A24   A(11,10,16)           119.8865         estimate D2E/DX2                !
 ! A25   A(9,13,14)            109.5            estimate D2E/DX2                !
 ! A26   A(7,15,19)            109.4712         estimate D2E/DX2                !
 ! A27   A(7,15,20)            109.4712         estimate D2E/DX2                !
 ! A28   A(19,15,20)           109.4713         estimate D2E/DX2                !
 ! A29   A(10,16,17)           109.4712         estimate D2E/DX2                !
 ! A30   A(10,16,18)           109.4712         estimate D2E/DX2                !
 ! A31   A(17,16,18)           109.4713         estimate D2E/DX2                !
 ! A32   A(15,20,21)           120.2269         estimate D2E/DX2                !
 ! A33   A(15,20,22)           119.8865         estimate D2E/DX2                !
 ! A34   A(21,20,22)           119.8865         estimate D2E/DX2                !
 ! A35   A(20,22,23)           109.4712         estimate D2E/DX2                !
 ! A36   A(20,22,24)           109.4712         estimate D2E/DX2                !
 ! A37   A(20,22,25)           109.4712         estimate D2E/DX2                !
 ! A38   A(23,22,24)           109.4713         estimate D2E/DX2                !
 ! A39   A(23,22,25)           109.4712         estimate D2E/DX2                !
 ! A40   A(24,22,25)           109.4712         estimate D2E/DX2                !
 ! D1    D(2,1,4,5)            -60.0            estimate D2E/DX2                !
 ! D2    D(2,1,4,6)           -180.0            estimate D2E/DX2                !
 ! D3    D(2,1,4,7)             60.0            estimate D2E/DX2                !
 ! D4    D(3,1,4,5)            180.0            estimate D2E/DX2                !
 ! D5    D(3,1,4,6)             60.0            estimate D2E/DX2                !
 ! D6    D(3,1,4,7)            -60.0            estimate D2E/DX2                !
 ! D7    D(10,1,4,5)            60.0            estimate D2E/DX2                !
 ! D8    D(10,1,4,6)           -60.0            estimate D2E/DX2                !
 ! D9    D(10,1,4,7)          -180.0            estimate D2E/DX2                !
 ! D10   D(2,1,10,11)          119.8889         estimate D2E/DX2                !
 ! D11   D(2,1,10,16)          -60.1111         estimate D2E/DX2                !
 ! D12   D(3,1,10,11)         -120.1111         estimate D2E/DX2                !
 ! D13   D(3,1,10,16)           59.8889         estimate D2E/DX2                !
 ! D14   D(4,1,10,11)           -0.1111         estimate D2E/DX2                !
 ! D15   D(4,1,10,16)          179.8889         estimate D2E/DX2                !
 ! D16   D(1,4,7,8)             59.8889         estimate D2E/DX2                !
 ! D17   D(1,4,7,9)            179.8889         estimate D2E/DX2                !
 ! D18   D(1,4,7,15)           -60.1111         estimate D2E/DX2                !
 ! D19   D(5,4,7,8)            179.8889         estimate D2E/DX2                !
 ! D20   D(5,4,7,9)            -60.1111         estimate D2E/DX2                !
 ! D21   D(5,4,7,15)            59.8889         estimate D2E/DX2                !
 ! D22   D(6,4,7,8)            -60.1111         estimate D2E/DX2                !
 ! D23   D(6,4,7,9)             59.8889         estimate D2E/DX2                !
 ! D24   D(6,4,7,15)           179.8889         estimate D2E/DX2                !
 ! D25   D(4,7,9,12)           179.9621         estimate D2E/DX2                !
 ! D26   D(4,7,9,13)            -0.0379         estimate D2E/DX2                !
 ! D27   D(8,7,9,12)           -60.0379         estimate D2E/DX2                !
 ! D28   D(8,7,9,13)           119.9621         estimate D2E/DX2                !
 ! D29   D(15,7,9,12)           59.9621         estimate D2E/DX2                !
 ! D30   D(15,7,9,13)         -120.0379         estimate D2E/DX2                !
 ! D31   D(4,7,15,19)          140.7762         estimate D2E/DX2                !
 ! D32   D(4,7,15,20)          -99.2238         estimate D2E/DX2                !
 ! D33   D(8,7,15,19)           20.7762         estimate D2E/DX2                !
 ! D34   D(8,7,15,20)          140.7762         estimate D2E/DX2                !
 ! D35   D(9,7,15,19)          -99.2238         estimate D2E/DX2                !
 ! D36   D(9,7,15,20)           20.7762         estimate D2E/DX2                !
 ! D37   D(7,9,13,14)          179.9672         estimate D2E/DX2                !
 ! D38   D(12,9,13,14)          -0.0328         estimate D2E/DX2                !
 ! D39   D(1,10,16,17)          59.8518         estimate D2E/DX2                !
 ! D40   D(1,10,16,18)         -60.1482         estimate D2E/DX2                !
 ! D41   D(11,10,16,17)       -120.1482         estimate D2E/DX2                !
 ! D42   D(11,10,16,18)        119.8518         estimate D2E/DX2                !
 ! D43   D(7,15,20,21)        -170.5031         estimate D2E/DX2                !
 ! D44   D(7,15,20,22)           9.4969         estimate D2E/DX2                !
 ! D45   D(19,15,20,21)        -50.5031         estimate D2E/DX2                !
 ! D46   D(19,15,20,22)        129.4969         estimate D2E/DX2                !
 ! D47   D(15,20,22,23)        -84.9345         estimate D2E/DX2                !
 ! D48   D(15,20,22,24)         35.0655         estimate D2E/DX2                !
 ! D49   D(15,20,22,25)        155.0655         estimate D2E/DX2                !
 ! D50   D(21,20,22,23)         95.0655         estimate D2E/DX2                !
 ! D51   D(21,20,22,24)       -144.9345         estimate D2E/DX2                !
 ! D52   D(21,20,22,25)        -24.9345         estimate D2E/DX2                !
 --------------------------------------------------------------------------------
 Trust Radius=3.00D-01 FncErr=1.00D-07 GrdErr=1.00D-06 EigMax=2.50D+02 EigMin=1.00D-04
 Number of steps in this run=    126 maximum allowed number of steps=    150.
 GradGradGradGradGradGradGradGradGradGradGradGradGradGradGradGradGradGrad

 Leave Link  103 at Wed Feb 28 21:23:29 2018, MaxMem=   536870912 cpu:               0.0 elap:               0.0
 (Enter /n/sw/g16_nehalem/g16/l202.exe)
                          Input orientation:                          
 ---------------------------------------------------------------------
 Center     Atomic      Atomic             Coordinates (Angstroms)
 Number     Number       Type             X           Y           Z
 ---------------------------------------------------------------------
      1          6           0       -3.169761    0.623342    0.000000
      2          1           0       -2.813088    1.127740   -0.873652
      3          1           0       -4.239761    0.623355    0.000000
      4          6           0       -2.656419    1.349298    1.257405
      5          1           0       -1.586419    1.349285    1.257405
      6          1           0       -3.013092    0.844900    2.131056
      7          6           0       -3.169735    2.801230    1.257405
      8          1           0       -4.239733    2.801244    1.255449
      9          6           0       -2.658693    3.526373    2.516215
     10          6           0       -2.656446   -0.828590    0.000000
     11          1           0       -2.039936   -1.176133    0.802515
     12          8           0       -2.959852    4.731181    2.719467
     13          8           0       -1.839114    2.828224    3.457373
     14          1           0       -1.606741    3.417300    4.178894
     15          7           0       -2.677534    3.494965    0.058501
     16          7           0       -2.968045   -1.629486   -0.966888
     17          8           0       -2.511753   -1.120058   -2.142423
     18          8           0       -4.320033   -1.764621   -1.025762
     19          1           0       -3.396846    4.088885   -0.301847
     20          6           0       -1.502579    4.305750    0.409226
     21          8           0       -1.025437    5.122084   -0.421139
     22          6           0       -0.853360    4.155619    1.797597
     23          1           0       -1.366800    4.777784    2.500584
     24          1           0       -0.916209    3.134855    2.112225
     25          1           0        0.174010    4.449907    1.744629
 ---------------------------------------------------------------------
                    Distance matrix (angstroms):
                    1          2          3          4          5
     1  C    0.000000
     2  H    1.070000   0.000000
     3  H    1.070000   1.747303   0.000000
     4  C    1.540000   2.148263   2.148263   0.000000
     5  H    2.148263   2.468846   3.024610   1.070000   0.000000
     6  H    2.148263   3.024611   2.468846   1.070000   1.747303
     7  C    2.514809   2.732978   2.732977   1.540000   2.148263
     8  H    2.732077   3.060882   2.513832   2.148263   3.024610
     9  C    3.875580   4.155536   4.154351   2.514809   2.733878
    10  C    1.540000   2.148263   2.148263   2.514809   2.732977
    11  H    2.271265   2.952140   2.953205   2.639087   2.605828
    12  O    4.930913   5.090857   5.089981   3.696868   3.932069
    13  O    4.311097   4.753740   4.751630   2.773999   2.662889
    14  H    5.264256   5.676758   5.674688   3.730088   3.579413
    15  N    2.914091   2.547751   3.269575   2.457987   2.689209
    16  N    2.459837   2.763151   2.761780   3.730650   3.966036
    17  O    2.839435   2.598688   3.258140   4.204459   4.302641
    18  O    2.842126   3.264931   2.600204   4.204397   4.730952
    19  H    3.486067   3.071825   3.579317   3.238029   3.635150
    20  C    4.062892   3.669190   4.606481   3.285021   3.076869
    21  O    5.001416   4.399460   5.545070   4.439766   4.167280
    22  C    4.590649   4.488224   5.213057   3.379093   2.950372
    23  H    5.173294   5.176875   5.636143   3.868220   3.653537
    24  H    3.980916   4.067201   4.670667   2.635766   2.090015
    25  H    5.372815   5.178315   6.096524   4.226404   3.598661
                    6          7          8          9         10
     6  H    0.000000
     7  C    2.148263   0.000000
     8  H    2.469538   1.070000   0.000000
     9  C    2.732077   1.540000   2.148263   0.000000
    10  C    2.732977   3.875581   4.154352   5.029617   0.000000
    11  H    2.607034   4.159662   4.567688   5.043133   1.070000
    12  O    3.930935   2.430306   2.739727   1.258400   6.196662
    13  O    2.659119   2.571214   3.257633   1.430000   5.098407
    14  H    3.576130   3.370102   3.982299   1.970533   6.049183
    15  N    3.380966   1.470000   2.086720   2.457987   4.324002
    16  N    3.965082   4.961795   5.117357   6.229815   1.293600
    17  O    4.730224   5.231469   5.468825   6.581324   2.166994
    18  O    4.299208   5.232880   5.104654   6.580294   2.166994
    19  H    4.073048   2.034920   2.189441   2.966945   4.982054
    20  C    4.150161   2.400500   3.235993   2.526546   5.278288
    21  O    5.362721   3.577972   4.304527   3.720466   6.184502
    22  C    3.966926   2.737110   3.687246   2.042447   5.596858
    23  H    4.279533   2.950056   3.702812   1.798683   6.272761
    24  H    3.105023   2.433188   3.448359   1.831050   4.816515
    25  H    4.827321   3.759808   4.736932   3.077737   6.238409
                   11         12         13         14         15
    11  H    0.000000
    12  O    6.278321   0.000000
    13  O    4.808687   2.328477   0.000000
    14  H    5.717274   2.384769   0.960000   0.000000
    15  N    4.772760   2.947655   3.563681   4.257965   0.000000
    16  N    2.048829   7.351692   6.381203   7.335003   5.234102
    17  O    2.983021   7.620745   6.884699   7.833627   5.115661
    18  O    2.981234   7.620517   6.880965   7.829604   5.615753
    19  H    5.548083   3.119591   4.259992   4.871606   1.000000
    20  C    5.522180   2.764390   3.404048   3.874351   1.470000
    21  O    6.495696   3.709201   4.578943   4.940092   2.367909
    22  C    5.552093   2.370322   2.342765   2.604472   2.605481
    23  H    6.227814   1.608694   2.222455   2.173755   3.054082
    24  H    4.643568   2.663358   1.659879   2.197210   2.729419
    25  H    6.118943   3.294012   3.100971   3.187946   3.447644
                   16         17         18         19         20
    16  N    0.000000
    17  O    1.360000   0.000000
    18  O    1.360000   2.220871   0.000000
    19  H    5.772860   5.595014   5.969913   0.000000
    20  C    6.266443   6.080192   6.844461   2.034921   0.000000
    21  O    7.046649   6.643514   7.658109   2.589461   1.258400
    22  C    6.751423   6.790198   7.418789   3.298703   1.540000
    23  H    7.459253   7.592955   7.997485   3.528355   2.148263
    24  H    6.032406   6.225117   6.740760   3.590470   2.148263
    25  H    7.360969   7.303904   8.154254   4.131514   2.148263
                   21         22         23         24         25
    21  O    0.000000
    22  C    2.426202   0.000000
    23  H    2.961679   1.070000   0.000000
    24  H    3.221637   1.070000   1.747303   0.000000
    25  H    2.565355   1.070000   1.747303   1.747303   0.000000
 Stoichiometry    C7H11N2O5(1-)
 Framework group  C1[X(C7H11N2O5)]
 Deg. of freedom    69
 Full point group                 C1      NOp   1
 Largest Abelian subgroup         C1      NOp   1
 Largest concise Abelian subgroup C1      NOp   1
                         Standard orientation:                         
 ---------------------------------------------------------------------
 Center     Atomic      Atomic             Coordinates (Angstroms)
 Number     Number       Type             X           Y           Z
 ---------------------------------------------------------------------
      1          6           0       -1.633520   -0.123159    0.320078
      2          1           0       -1.510115    0.939499    0.299350
      3          1           0       -1.863583   -0.436125    1.317085
      4          6           0       -0.330153   -0.800424   -0.142680
      5          1           0       -0.100091   -0.487458   -1.139687
      6          1           0       -0.453559   -1.863082   -0.121953
      7          6           0        0.819708   -0.398696    0.799675
      8          1           0        0.588771   -0.709946    1.797017
      9          6           0        2.122504   -1.078177    0.338558
     10          6           0       -2.783382   -0.524887   -0.622277
     11          1           0       -2.593230   -1.180851   -1.445960
     12          8           0        3.194473   -0.886673    0.969255
     13          8           0        2.114068   -1.929664   -0.810267
     14          1           0        2.998323   -2.270912   -0.962720
     15          7           0        0.990995    1.060972    0.769171
     16          7           0       -3.978365   -0.072020   -0.421464
     17          8           0       -3.964312    1.286585   -0.481437
     18          8           0       -4.412721   -0.467176    0.805234
     19          1           0        1.190522    1.392520    1.691269
     20          6           0        2.104376    1.405064   -0.126865
     21          8           0        2.543813    2.583541   -0.167597
     22          6           0        2.735168    0.319625   -1.018786
     23          1           0        3.479481   -0.210931   -0.462541
     24          1           0        1.976504   -0.362826   -1.340639
     25          1           0        3.187798    0.778464   -1.872890
 ---------------------------------------------------------------------
 Rotational constants (GHZ):           1.3035640           0.3131312           0.2793805
 Leave Link  202 at Wed Feb 28 21:23:29 2018, MaxMem=   536870912 cpu:               0.0 elap:               0.0
 (Enter /n/sw/g16_nehalem/g16/l301.exe)
 Standard basis: 6-31G (6D, 7F)
 Ernie: Thresh=  0.10000D-02 Tol=  0.10000D-05 Strict=F.
 There are   148 symmetry adapted cartesian basis functions of A   symmetry.
 There are   148 symmetry adapted basis functions of A   symmetry.
   148 basis functions,   352 primitive gaussians,   148 cartesian basis functions
    54 alpha electrons       54 beta electrons
       nuclear repulsion energy       928.1196415752 Hartrees.
 IExCor=  402 DFT=T Ex+Corr=B3LYP ExCW=0 ScaHFX=  0.200000
 ScaDFX=  0.800000  0.720000  1.000000  0.810000 ScalE2=  1.000000  1.000000
 IRadAn=      5 IRanWt=     -1 IRanGd=            0 ICorTp=0 IEmpDi=141
 NAtoms=   25 NActive=   25 NUniq=   25 SFac= 1.00D+00 NAtFMM=   60 NAOKFM=F Big=F
 Integral buffers will be    131072 words long.
 Raffenetti 2 integral format.
 Two-electron integral symmetry is turned on.
 R6Disp:  Grimme-D3(BJ) Dispersion energy=       -0.0456250015 Hartrees.
 Nuclear repulsion after empirical dispersion term =      928.0740165736 Hartrees.
 ------------------------------------------------------------------------------
 Polarizable Continuum Model (PCM)
 =================================
 Model                : PCM.
 Atomic radii         : UFF (Universal Force Field).
 Polarization charges : Total charges.
 Charge compensation  : None.
 Solution method      : On-the-fly selection.
 Cavity type          : Scaled VdW (van der Waals Surface) (Alpha=1.100).
 Cavity algorithm     : GePol (No added spheres)
                        Default sphere list used, NSphG=   25.
                        Lebedev-Laikov grids with approx.  5.0 points / Ang**2.
                        Smoothing algorithm: York/Karplus (Gamma=1.0000).
                        Polarization charges: spherical gaussians, with
                                              point-specific exponents (IZeta= 3).
                        Self-potential: point-specific (ISelfS= 7).
                        Self-field    : sphere-specific E.n sum rule (ISelfD= 2).
 1st derivatives      : Analytical E(r).r(x)/FMM algorithm (CHGder, D1EAlg=3).
                        Cavity 1st derivative terms included.
 Solvent              : Water, Eps=  78.355300 Eps(inf)=   1.777849
 ------------------------------------------------------------------------------
 GePol: Number of generator spheres                  =      25
 GePol: Total number of spheres                      =      25
 GePol: Number of exposed spheres                    =      25 (100.00%)
 GePol: Number of points                             =    1916
 GePol: Average weight of points                     =       0.13
 GePol: Minimum weight of points                     =   0.23D-10
 GePol: Maximum weight of points                     =    0.20577
 GePol: Number of points with low weight             =     111
 GePol: Fraction of low-weight points (<1% of avg)   =       5.79%
 GePol: Cavity surface area                          =    254.040 Ang**2
 GePol: Cavity volume                                =    263.220 Ang**3
 Leave Link  301 at Wed Feb 28 21:23:29 2018, MaxMem=   536870912 cpu:               0.3 elap:               0.1
 (Enter /n/sw/g16_nehalem/g16/l302.exe)
 NPDir=0 NMtPBC=     1 NCelOv=     1 NCel=       1 NClECP=     1 NCelD=      1
         NCelK=      1 NCelE2=     1 NClLst=     1 CellRange=     0.0.
 One-electron integrals computed using PRISM.
 One-electron integral symmetry used in STVInt
 NBasis=   148 RedAO= T EigKep=  2.71D-03  NBF=   148
 NBsUse=   148 1.00D-06 EigRej= -1.00D+00 NBFU=   148
 Precomputing XC quadrature grid using
 IXCGrd= 4 IRadAn=           5 IRanWt=          -1 IRanGd=           0 AccXCQ= 0.00D+00.
 Generated NRdTot=       0 NPtTot=           0 NUsed=           0 NTot=          32
 NSgBfM=   147   147   147   147   147 MxSgAt=    25 MxSgA2=    25.
 Leave Link  302 at Wed Feb 28 21:23:29 2018, MaxMem=   536870912 cpu:               1.3 elap:               0.3
 (Enter /n/sw/g16_nehalem/g16/l303.exe)
 DipDrv:  MaxL=1.
 Leave Link  303 at Wed Feb 28 21:23:29 2018, MaxMem=   536870912 cpu:               0.2 elap:               0.0
 (Enter /n/sw/g16_nehalem/g16/l401.exe)
 ExpMin= 1.61D-01 ExpMax= 5.48D+03 ExpMxC= 8.25D+02 IAcc=3 IRadAn=         5 AccDes= 0.00D+00
 Harris functional with IExCor=  402 and IRadAn=       5 diagonalized for initial guess.
 HarFok:  IExCor=  402 AccDes= 0.00D+00 IRadAn=         5 IDoV= 1 UseB2=F ITyADJ=14
 ICtDFT=  3500011 ScaDFX=  1.000000  1.000000  1.000000  1.000000
 FoFCou: FMM=F IPFlag=           0 FMFlag=      100000 FMFlg1=           0
         NFxFlg=           0 DoJE=T BraDBF=F KetDBF=T FulRan=T
         wScrn=  0.000000 ICntrl=       500 IOpCl=  0 I1Cent=   200000004 NGrid=           0
         NMat0=    1 NMatS0=      1 NMatT0=    0 NMatD0=    1 NMtDS0=    0 NMtDT0=    0
 Petite list used in FoFCou.
 Harris En= -758.707160736525    
 JPrj=0 DoOrth=F DoCkMO=F.
 Leave Link  401 at Wed Feb 28 21:23:31 2018, MaxMem=   536870912 cpu:               8.6 elap:               1.7
 (Enter /n/sw/g16_nehalem/g16/l502.exe)
 Keep R1 ints in memory in canonical form, NReq=65670787.
 FoFCou: FMM=F IPFlag=           0 FMFlag=           0 FMFlg1=           0
         NFxFlg=           0 DoJE=F BraDBF=F KetDBF=F FulRan=T
         wScrn=  0.000000 ICntrl=       600 IOpCl=  0 I1Cent=           0 NGrid=           0
         NMat0=    1 NMatS0=  11026 NMatT0=    0 NMatD0=    1 NMtDS0=    0 NMtDT0=    0
 Symmetry not used in FoFCou.
 Two-electron integral symmetry not used.
 Closed shell SCF:
 Using DIIS extrapolation, IDIIS=  1040.
 NGot=   536870912 LenX=   476032318 LenY=   476009973
 Requested convergence on RMS density matrix=1.00D-08 within 128 cycles.
 Requested convergence on MAX density matrix=1.00D-06.
 Requested convergence on             energy=1.00D-06.
 No special actions if energy rises.

 Cycle   1  Pass 1  IDiag  1:
 Inv3:  Mode=1 IEnd=    11013168.
 Iteration    1 A*A^-1 deviation from unit magnitude is 4.55D-15 for   1901.
 Iteration    1 A*A^-1 deviation from orthogonality  is 1.27D-15 for   1891    590.
 Iteration    1 A^-1*A deviation from unit magnitude is 4.55D-15 for   1901.
 Iteration    1 A^-1*A deviation from orthogonality  is 9.89D-14 for   1358   1319.
 E= -758.014504555659    
 DIIS: error= 4.97D-02 at cycle   1 NSaved=   1.
 NSaved= 1 IEnMin= 1 EnMin= -758.014504555659     IErMin= 1 ErrMin= 4.97D-02
 ErrMax= 4.97D-02  0.00D+00 EMaxC= 1.00D-01 BMatC= 5.76D-01 BMatP= 5.76D-01
 IDIUse=3 WtCom= 5.03D-01 WtEn= 4.97D-01
 Coeff-Com:  0.100D+01
 Coeff-En:   0.100D+01
 Coeff:      0.100D+01
 Gap=    -0.096 Goal=   None    Shift=    0.000
 GapD=   -0.096 DampG=0.250 DampE=0.500 DampFc=0.2500 IDamp=-1.
 Damping current iteration by 2.50D-01
 RMSDP=1.86D-02 MaxDP=3.36D-01              OVMax= 8.96D-01

 Cycle   2  Pass 1  IDiag  1:
 E= -758.154186167138     Delta-E=       -0.139681611479 Rises=F Damp=T
 DIIS: error= 1.50D-02 at cycle   2 NSaved=   2.
 NSaved= 2 IEnMin= 2 EnMin= -758.154186167138     IErMin= 2 ErrMin= 1.50D-02
 ErrMax= 1.50D-02  0.00D+00 EMaxC= 1.00D-01 BMatC= 9.34D-02 BMatP= 5.76D-01
 IDIUse=3 WtCom= 8.50D-01 WtEn= 1.50D-01
 Coeff-Com: -0.211D+00 0.121D+01
 Coeff-En:   0.232D+00 0.768D+00
 Coeff:     -0.145D+00 0.114D+01
 Gap=     0.254 Goal=   None    Shift=    0.000
 RMSDP=6.07D-03 MaxDP=1.16D-01 DE=-1.40D-01 OVMax= 8.20D-01

 Cycle   3  Pass 1  IDiag  1:
 E= -758.252570476181     Delta-E=       -0.098384309043 Rises=F Damp=F
 DIIS: error= 4.23D-02 at cycle   3 NSaved=   3.
 NSaved= 3 IEnMin= 3 EnMin= -758.252570476181     IErMin= 2 ErrMin= 1.50D-02
 ErrMax= 4.23D-02  0.00D+00 EMaxC= 1.00D-01 BMatC= 2.70D-01 BMatP= 9.34D-02
 IDIUse=2 WtCom= 0.00D+00 WtEn= 1.00D+00
 Coeff-En:   0.000D+00 0.380D+00 0.620D+00
 Coeff:      0.000D+00 0.380D+00 0.620D+00
 Gap=     0.127 Goal=   None    Shift=    0.000
 RMSDP=1.41D-02 MaxDP=2.48D-01 DE=-9.84D-02 OVMax= 9.89D-01

 Cycle   4  Pass 1  IDiag  1:
 E= -756.860163404113     Delta-E=        1.392407072068 Rises=F Damp=F
 DIIS: error= 1.12D-01 at cycle   4 NSaved=   4.
 NSaved= 4 IEnMin= 3 EnMin= -758.252570476181     IErMin= 2 ErrMin= 1.50D-02
 ErrMax= 1.12D-01  0.00D+00 EMaxC= 1.00D-01 BMatC= 1.15D+00 BMatP= 9.34D-02
 IDIUse=2 WtCom= 0.00D+00 WtEn= 1.00D+00
 EnCoef did     2 forward-backward iterations
 Coeff-En:   0.568D-01 0.000D+00 0.722D+00 0.222D+00
 Coeff:      0.568D-01 0.000D+00 0.722D+00 0.222D+00
 Gap=    -0.078 Goal=   None    Shift=    0.000
 RMSDP=1.16D-02 MaxDP=2.44D-01 DE= 1.39D+00 OVMax= 9.11D-01

 Cycle   5  Pass 1  IDiag  1:
 E= -758.299464352350     Delta-E=       -1.439300948237 Rises=F Damp=F
 DIIS: error= 4.12D-02 at cycle   5 NSaved=   5.
 NSaved= 5 IEnMin= 5 EnMin= -758.299464352350     IErMin= 2 ErrMin= 1.50D-02
 ErrMax= 4.12D-02  0.00D+00 EMaxC= 1.00D-01 BMatC= 2.19D-01 BMatP= 9.34D-02
 IDIUse=2 WtCom= 0.00D+00 WtEn= 1.00D+00
 EnCoef did     4 forward-backward iterations
 Coeff-En:   0.000D+00 0.000D+00 0.488D+00 0.408D-01 0.472D+00
 Coeff:      0.000D+00 0.000D+00 0.488D+00 0.408D-01 0.472D+00
 Gap=    -0.005 Goal=   None    Shift=    0.000
 RMSDP=1.19D-02 MaxDP=2.64D-01 DE=-1.44D+00 OVMax= 9.95D-01

 Cycle   6  Pass 1  IDiag  1:
 E= -757.415506523089     Delta-E=        0.883957829261 Rises=F Damp=F
 DIIS: error= 8.19D-02 at cycle   6 NSaved=   6.
 NSaved= 6 IEnMin= 5 EnMin= -758.299464352350     IErMin= 2 ErrMin= 1.50D-02
 ErrMax= 8.19D-02  0.00D+00 EMaxC= 1.00D-01 BMatC= 6.98D-01 BMatP= 9.34D-02
 IDIUse=2 WtCom= 0.00D+00 WtEn= 1.00D+00
 EnCoef did     2 forward-backward iterations
 Coeff-En:   0.000D+00 0.000D+00 0.425D+00 0.000D+00 0.459D+00 0.116D+00
 Coeff:      0.000D+00 0.000D+00 0.425D+00 0.000D+00 0.459D+00 0.116D+00
 Gap=    -0.041 Goal=   None    Shift=    0.000
 RMSDP=1.16D-02 MaxDP=2.31D-01 DE= 8.84D-01 OVMax= 9.85D-01

 Cycle   7  Pass 1  IDiag  1:
 E= -758.466923788224     Delta-E=       -1.051417265135 Rises=F Damp=F
 DIIS: error= 2.42D-02 at cycle   7 NSaved=   7.
 NSaved= 7 IEnMin= 7 EnMin= -758.466923788224     IErMin= 2 ErrMin= 1.50D-02
 ErrMax= 2.42D-02  0.00D+00 EMaxC= 1.00D-01 BMatC= 5.94D-02 BMatP= 9.34D-02
 IDIUse=3 WtCom= 7.58D-01 WtEn= 2.42D-01
 Coeff-Com: -0.152D+00 0.436D+00 0.243D+00-0.299D-01 0.220D+00 0.612D-01
 Coeff-Com:  0.221D+00
 Coeff-En:   0.000D+00 0.000D+00 0.000D+00 0.000D+00 0.300D+00 0.000D+00
 Coeff-En:   0.700D+00
 Coeff:     -0.115D+00 0.331D+00 0.184D+00-0.226D-01 0.239D+00 0.464D-01
 Coeff:      0.337D+00
 Gap=     0.014 Goal=   None    Shift=    0.000
 RMSDP=4.51D-03 MaxDP=8.46D-02 DE=-1.05D+00 OVMax= 4.68D-01

 Cycle   8  Pass 1  IDiag  1:
 E= -758.523898020591     Delta-E=       -0.056974232366 Rises=F Damp=F
 DIIS: error= 1.13D-02 at cycle   8 NSaved=   8.
 NSaved= 8 IEnMin= 8 EnMin= -758.523898020591     IErMin= 8 ErrMin= 1.13D-02
 ErrMax= 1.13D-02  0.00D+00 EMaxC= 1.00D-01 BMatC= 1.89D-02 BMatP= 5.94D-02
 IDIUse=3 WtCom= 8.87D-01 WtEn= 1.13D-01
 Coeff-Com: -0.828D-01 0.169D+00-0.168D-01-0.738D-02 0.247D-01 0.409D-02
 Coeff-Com:  0.355D+00 0.554D+00
 Coeff-En:   0.000D+00 0.000D+00 0.000D+00 0.000D+00 0.000D+00 0.000D+00
 Coeff-En:   0.233D+00 0.767D+00
 Coeff:     -0.735D-01 0.150D+00-0.149D-01-0.655D-02 0.220D-01 0.363D-02
 Coeff:      0.341D+00 0.578D+00
 Gap=     0.041 Goal=   None    Shift=    0.000
 RMSDP=1.33D-03 MaxDP=2.51D-02 DE=-5.70D-02 OVMax= 1.11D-01

 Cycle   9  Pass 1  IDiag  1:
 E= -758.539884466328     Delta-E=       -0.015986445738 Rises=F Damp=F
 DIIS: error= 3.60D-03 at cycle   9 NSaved=   9.
 NSaved= 9 IEnMin= 9 EnMin= -758.539884466328     IErMin= 9 ErrMin= 3.60D-03
 ErrMax= 3.60D-03  0.00D+00 EMaxC= 1.00D-01 BMatC= 2.26D-03 BMatP= 1.89D-02
 IDIUse=3 WtCom= 9.64D-01 WtEn= 3.60D-02
 Coeff-Com: -0.318D-01 0.629D-01-0.406D-01 0.490D-02-0.387D-01-0.191D-02
 Coeff-Com:  0.206D+00 0.381D+00 0.459D+00
 Coeff-En:   0.000D+00 0.000D+00 0.000D+00 0.000D+00 0.000D+00 0.000D+00
 Coeff-En:   0.000D+00 0.000D+00 0.100D+01
 Coeff:     -0.307D-01 0.606D-01-0.392D-01 0.472D-02-0.373D-01-0.184D-02
 Coeff:      0.198D+00 0.367D+00 0.478D+00
 Gap=     0.047 Goal=   None    Shift=    0.000
 RMSDP=5.37D-04 MaxDP=9.82D-03 DE=-1.60D-02 OVMax= 4.30D-02

 Cycle  10  Pass 1  IDiag  1:
 E= -758.540915053435     Delta-E=       -0.001030587107 Rises=F Damp=F
 DIIS: error= 3.11D-03 at cycle  10 NSaved=  10.
 NSaved=10 IEnMin=10 EnMin= -758.540915053435     IErMin=10 ErrMin= 3.11D-03
 ErrMax= 3.11D-03  0.00D+00 EMaxC= 1.00D-01 BMatC= 1.02D-03 BMatP= 2.26D-03
 IDIUse=3 WtCom= 9.69D-01 WtEn= 3.11D-02
 Coeff-Com:  0.270D-02-0.331D-02-0.199D-01 0.264D-02-0.354D-01 0.267D-02
 Coeff-Com:  0.727D-01 0.741D-01 0.341D+00 0.563D+00
 Coeff-En:   0.000D+00 0.000D+00 0.000D+00 0.000D+00 0.000D+00 0.000D+00
 Coeff-En:   0.000D+00 0.000D+00 0.295D+00 0.705D+00
 Coeff:      0.262D-02-0.321D-02-0.193D-01 0.256D-02-0.343D-01 0.259D-02
 Coeff:      0.704D-01 0.718D-01 0.340D+00 0.567D+00
 Gap=     0.051 Goal=   None    Shift=    0.000
 RMSDP=1.77D-04 MaxDP=3.75D-03 DE=-1.03D-03 OVMax= 5.14D-03

 Cycle  11  Pass 1  IDiag  1:
 E= -758.541651078503     Delta-E=       -0.000736025068 Rises=F Damp=F
 DIIS: error= 1.77D-03 at cycle  11 NSaved=  11.
 NSaved=11 IEnMin=11 EnMin= -758.541651078503     IErMin=11 ErrMin= 1.77D-03
 ErrMax= 1.77D-03  0.00D+00 EMaxC= 1.00D-01 BMatC= 3.24D-04 BMatP= 1.02D-03
 IDIUse=3 WtCom= 9.82D-01 WtEn= 1.77D-02
 Coeff-Com:  0.658D-02-0.112D-01-0.740D-02 0.129D-02-0.213D-01 0.254D-02
 Coeff-Com:  0.430D-01-0.220D-02 0.173D+00 0.271D+00 0.545D+00
 Coeff-En:   0.000D+00 0.000D+00 0.000D+00 0.000D+00 0.000D+00 0.000D+00
 Coeff-En:   0.000D+00 0.000D+00 0.000D+00 0.000D+00 0.100D+01
 Coeff:      0.647D-02-0.110D-01-0.726D-02 0.127D-02-0.210D-01 0.249D-02
 Coeff:      0.422D-01-0.216D-02 0.170D+00 0.266D+00 0.553D+00
 Gap=     0.051 Goal=   None    Shift=    0.000
 RMSDP=8.30D-05 MaxDP=2.44D-03 DE=-7.36D-04 OVMax= 4.18D-03

 Cycle  12  Pass 1  IDiag  1:
 E= -758.541782652234     Delta-E=       -0.000131573731 Rises=F Damp=F
 DIIS: error= 1.49D-03 at cycle  12 NSaved=  12.
 NSaved=12 IEnMin=12 EnMin= -758.541782652234     IErMin=12 ErrMin= 1.49D-03
 ErrMax= 1.49D-03  0.00D+00 EMaxC= 1.00D-01 BMatC= 1.84D-04 BMatP= 3.24D-04
 IDIUse=3 WtCom= 9.85D-01 WtEn= 1.49D-02
 Coeff-Com:  0.570D-02-0.837D-02-0.369D-03 0.165D-02-0.126D-01-0.190D-02
 Coeff-Com:  0.289D-01-0.215D-01 0.483D-01-0.385D-01 0.448D+00 0.551D+00
 Coeff-En:   0.000D+00 0.000D+00 0.000D+00 0.000D+00 0.000D+00 0.000D+00
 Coeff-En:   0.000D+00 0.000D+00 0.000D+00 0.000D+00 0.000D+00 0.100D+01
 Coeff:      0.561D-02-0.825D-02-0.364D-03 0.163D-02-0.124D-01-0.188D-02
 Coeff:      0.285D-01-0.211D-01 0.475D-01-0.379D-01 0.441D+00 0.558D+00
 Gap=     0.051 Goal=   None    Shift=    0.000
 RMSDP=5.13D-05 MaxDP=1.22D-03 DE=-1.32D-04 OVMax= 2.05D-03

 Cycle  13  Pass 1  IDiag  1:
 E= -758.541906083292     Delta-E=       -0.000123431058 Rises=F Damp=F
 DIIS: error= 9.63D-04 at cycle  13 NSaved=  13.
 NSaved=13 IEnMin=13 EnMin= -758.541906083292     IErMin=13 ErrMin= 9.63D-04
 ErrMax= 9.63D-04  0.00D+00 EMaxC= 1.00D-01 BMatC= 6.62D-05 BMatP= 1.84D-04
 IDIUse=3 WtCom= 9.90D-01 WtEn= 9.63D-03
 Coeff-Com:  0.351D-02-0.502D-02 0.384D-03 0.112D-02-0.734D-02-0.150D-02
 Coeff-Com:  0.187D-01-0.776D-03 0.441D-01-0.309D-01 0.417D-01-0.210D-01
 Coeff-Com:  0.957D+00
 Coeff-En:   0.000D+00 0.000D+00 0.000D+00 0.000D+00 0.000D+00 0.000D+00
 Coeff-En:   0.000D+00 0.000D+00 0.000D+00 0.000D+00 0.000D+00 0.000D+00
 Coeff-En:   0.100D+01
 Coeff:      0.347D-02-0.497D-02 0.380D-03 0.111D-02-0.727D-02-0.149D-02
 Coeff:      0.186D-01-0.769D-03 0.437D-01-0.306D-01 0.413D-01-0.208D-01
 Coeff:      0.957D+00
 Gap=     0.052 Goal=   None    Shift=    0.000
 RMSDP=3.10D-05 MaxDP=7.27D-04 DE=-1.23D-04 OVMax= 2.15D-03

 Cycle  14  Pass 1  IDiag  1:
 E= -758.541944106076     Delta-E=       -0.000038022784 Rises=F Damp=F
 DIIS: error= 6.45D-04 at cycle  14 NSaved=  14.
 NSaved=14 IEnMin=14 EnMin= -758.541944106076     IErMin=14 ErrMin= 6.45D-04
 ErrMax= 6.45D-04  0.00D+00 EMaxC= 1.00D-01 BMatC= 3.14D-05 BMatP= 6.62D-05
 IDIUse=3 WtCom= 9.94D-01 WtEn= 6.45D-03
 Coeff-Com:  0.230D-03 0.835D-03 0.501D-03 0.145D-05-0.166D-02-0.355D-03
 Coeff-Com:  0.191D-02 0.185D-01 0.429D-01 0.385D-01-0.348D+00-0.675D+00
 Coeff-Com:  0.922D+00 0.999D+00
 Coeff-En:   0.000D+00 0.000D+00 0.000D+00 0.000D+00 0.000D+00 0.000D+00
 Coeff-En:   0.000D+00 0.000D+00 0.000D+00 0.000D+00 0.000D+00 0.000D+00
 Coeff-En:   0.000D+00 0.100D+01
 Coeff:      0.228D-03 0.830D-03 0.498D-03 0.144D-05-0.165D-02-0.353D-03
 Coeff:      0.190D-02 0.184D-01 0.426D-01 0.383D-01-0.346D+00-0.671D+00
 Coeff:      0.916D+00 0.999D+00
 Gap=     0.052 Goal=   None    Shift=    0.000
 RMSDP=4.49D-05 MaxDP=1.04D-03 DE=-3.80D-05 OVMax= 2.93D-03

 Cycle  15  Pass 1  IDiag  1:
 E= -758.541977124333     Delta-E=       -0.000033018257 Rises=F Damp=F
 DIIS: error= 1.29D-04 at cycle  15 NSaved=  15.
 NSaved=15 IEnMin=15 EnMin= -758.541977124333     IErMin=15 ErrMin= 1.29D-04
 ErrMax= 1.29D-04  0.00D+00 EMaxC= 1.00D-01 BMatC= 1.84D-06 BMatP= 3.14D-05
 IDIUse=3 WtCom= 9.99D-01 WtEn= 1.29D-03
 Coeff-Com:  0.213D-03-0.348D-03-0.230D-03 0.186D-04-0.309D-03-0.442D-04
 Coeff-Com:  0.448D-03 0.948D-02 0.197D-01 0.250D-01-0.191D+00-0.368D+00
 Coeff-Com:  0.347D+00 0.550D+00 0.607D+00
 Coeff-En:   0.000D+00 0.000D+00 0.000D+00 0.000D+00 0.000D+00 0.000D+00
 Coeff-En:   0.000D+00 0.000D+00 0.000D+00 0.000D+00 0.000D+00 0.000D+00
 Coeff-En:   0.000D+00 0.000D+00 0.100D+01
 Coeff:      0.213D-03-0.347D-03-0.230D-03 0.186D-04-0.309D-03-0.442D-04
 Coeff:      0.448D-03 0.947D-02 0.197D-01 0.250D-01-0.190D+00-0.367D+00
 Coeff:      0.347D+00 0.549D+00 0.608D+00
 Gap=     0.052 Goal=   None    Shift=    0.000
 RMSDP=1.21D-05 MaxDP=1.79D-04 DE=-3.30D-05 OVMax= 7.00D-04

 Cycle  16  Pass 1  IDiag  1:
 E= -758.541979047646     Delta-E=       -0.000001923313 Rises=F Damp=F
 DIIS: error= 3.61D-05 at cycle  16 NSaved=  16.
 NSaved=16 IEnMin=16 EnMin= -758.541979047646     IErMin=16 ErrMin= 3.61D-05
 ErrMax= 3.61D-05  0.00D+00 EMaxC= 1.00D-01 BMatC= 1.50D-07 BMatP= 1.84D-06
 IDIUse=1 WtCom= 1.00D+00 WtEn= 0.00D+00
 Coeff-Com: -0.292D-04-0.332D-04-0.164D-03-0.110D-04 0.126D-04-0.629D-05
 Coeff-Com:  0.268D-03 0.113D-02 0.221D-02 0.667D-02-0.359D-01-0.579D-01
 Coeff-Com: -0.443D-02 0.996D-01 0.261D+00 0.728D+00
 Coeff:     -0.292D-04-0.332D-04-0.164D-03-0.110D-04 0.126D-04-0.629D-05
 Coeff:      0.268D-03 0.113D-02 0.221D-02 0.667D-02-0.359D-01-0.579D-01
 Coeff:     -0.443D-02 0.996D-01 0.261D+00 0.728D+00
 Gap=     0.052 Goal=   None    Shift=    0.000
 RMSDP=4.70D-06 MaxDP=8.03D-05 DE=-1.92D-06 OVMax= 3.30D-04

 Cycle  17  Pass 1  IDiag  1:
 E= -758.541979234770     Delta-E=       -0.000000187124 Rises=F Damp=F
 DIIS: error= 1.06D-05 at cycle  17 NSaved=  17.
 NSaved=17 IEnMin=17 EnMin= -758.541979234770     IErMin=17 ErrMin= 1.06D-05
 ErrMax= 1.06D-05  0.00D+00 EMaxC= 1.00D-01 BMatC= 1.57D-08 BMatP= 1.50D-07
 IDIUse=1 WtCom= 1.00D+00 WtEn= 0.00D+00
 Coeff-Com: -0.374D-04-0.133D-04-0.689D-04-0.619D-05 0.481D-04 0.294D-05
 Coeff-Com:  0.163D-03-0.655D-03-0.106D-02 0.211D-02 0.545D-04 0.896D-02
 Coeff-Com: -0.456D-01-0.147D-02 0.699D-01 0.413D+00 0.554D+00
 Coeff:     -0.374D-04-0.133D-04-0.689D-04-0.619D-05 0.481D-04 0.294D-05
 Coeff:      0.163D-03-0.655D-03-0.106D-02 0.211D-02 0.545D-04 0.896D-02
 Coeff:     -0.456D-01-0.147D-02 0.699D-01 0.413D+00 0.554D+00
 Gap=     0.052 Goal=   None    Shift=    0.000
 RMSDP=1.61D-06 MaxDP=2.46D-05 DE=-1.87D-07 OVMax= 1.04D-04

 Cycle  18  Pass 1  IDiag  1:
 E= -758.541979255550     Delta-E=       -0.000000020780 Rises=F Damp=F
 DIIS: error= 4.34D-06 at cycle  18 NSaved=  18.
 NSaved=18 IEnMin=18 EnMin= -758.541979255550     IErMin=18 ErrMin= 4.34D-06
 ErrMax= 4.34D-06  0.00D+00 EMaxC= 1.00D-01 BMatC= 2.24D-09 BMatP= 1.57D-08
 IDIUse=1 WtCom= 1.00D+00 WtEn= 0.00D+00
 Coeff-Com: -0.367D-04 0.604D-04 0.268D-04-0.734D-05 0.174D-04 0.461D-05
 Coeff-Com:  0.220D-04-0.585D-03-0.772D-03 0.474D-03 0.566D-02 0.128D-01
 Coeff-Com: -0.147D-01-0.155D-01-0.385D-01-0.495D-02 0.189D+00 0.867D+00
 Coeff:     -0.367D-04 0.604D-04 0.268D-04-0.734D-05 0.174D-04 0.461D-05
 Coeff:      0.220D-04-0.585D-03-0.772D-03 0.474D-03 0.566D-02 0.128D-01
 Coeff:     -0.147D-01-0.155D-01-0.385D-01-0.495D-02 0.189D+00 0.867D+00
 Gap=     0.052 Goal=   None    Shift=    0.000
 RMSDP=1.22D-06 MaxDP=2.10D-05 DE=-2.08D-08 OVMax= 9.83D-05

 Cycle  19  Pass 1  IDiag  1:
 E= -758.541979260111     Delta-E=       -0.000000004562 Rises=F Damp=F
 DIIS: error= 2.27D-06 at cycle  19 NSaved=  19.
 NSaved=19 IEnMin=19 EnMin= -758.541979260111     IErMin=19 ErrMin= 2.27D-06
 ErrMax= 2.27D-06  0.00D+00 EMaxC= 1.00D-01 BMatC= 8.21D-10 BMatP= 2.24D-09
 IDIUse=1 WtCom= 1.00D+00 WtEn= 0.00D+00
 Coeff-Com: -0.121D-04 0.172D-04 0.186D-04-0.218D-05 0.132D-04 0.114D-05
 Coeff-Com: -0.138D-04-0.261D-03-0.343D-03-0.229D-03 0.308D-02 0.479D-02
 Coeff-Com: -0.576D-03-0.855D-02-0.317D-01-0.673D-01-0.188D-03 0.407D+00
 Coeff-Com:  0.694D+00
 Coeff:     -0.121D-04 0.172D-04 0.186D-04-0.218D-05 0.132D-04 0.114D-05
 Coeff:     -0.138D-04-0.261D-03-0.343D-03-0.229D-03 0.308D-02 0.479D-02
 Coeff:     -0.576D-03-0.855D-02-0.317D-01-0.673D-01-0.188D-03 0.407D+00
 Coeff:      0.694D+00
 Gap=     0.052 Goal=   None    Shift=    0.000
 RMSDP=5.31D-07 MaxDP=8.99D-06 DE=-4.56D-09 OVMax= 3.67D-05

 Cycle  20  Pass 1  IDiag  1:
 E= -758.541979261381     Delta-E=       -0.000000001270 Rises=F Damp=F
 DIIS: error= 7.11D-07 at cycle  20 NSaved=  20.
 NSaved=20 IEnMin=20 EnMin= -758.541979261381     IErMin=20 ErrMin= 7.11D-07
 ErrMax= 7.11D-07  0.00D+00 EMaxC= 1.00D-01 BMatC= 5.71D-11 BMatP= 8.21D-10
 IDIUse=1 WtCom= 1.00D+00 WtEn= 0.00D+00
 Coeff-Com:  0.795D-06-0.170D-05 0.125D-05 0.275D-06 0.186D-05-0.260D-06
 Coeff-Com: -0.404D-05 0.123D-04 0.431D-04-0.139D-03-0.791D-04-0.128D-02
 Coeff-Com:  0.201D-02 0.164D-03-0.558D-06-0.112D-01-0.254D-01-0.475D-01
 Coeff-Com:  0.126D+00 0.957D+00
 Coeff:      0.795D-06-0.170D-05 0.125D-05 0.275D-06 0.186D-05-0.260D-06
 Coeff:     -0.404D-05 0.123D-04 0.431D-04-0.139D-03-0.791D-04-0.128D-02
 Coeff:      0.201D-02 0.164D-03-0.558D-06-0.112D-01-0.254D-01-0.475D-01
 Coeff:      0.126D+00 0.957D+00
 Gap=     0.052 Goal=   None    Shift=    0.000
 RMSDP=1.89D-07 MaxDP=3.37D-06 DE=-1.27D-09 OVMax= 1.31D-05

 Cycle  21  Pass 1  IDiag  1:
 E= -758.541979261480     Delta-E=       -0.000000000099 Rises=F Damp=F
 DIIS: error= 1.48D-07 at cycle  21 NSaved=  20.
 NSaved=20 IEnMin=20 EnMin= -758.541979261480     IErMin=20 ErrMin= 1.48D-07
 ErrMax= 1.48D-07  0.00D+00 EMaxC= 1.00D-01 BMatC= 2.46D-12 BMatP= 5.71D-11
 IDIUse=1 WtCom= 1.00D+00 WtEn= 0.00D+00
 Coeff-Com:  0.264D-07 0.942D-06 0.428D-06-0.778D-07-0.137D-07-0.426D-06
 Coeff-Com:  0.177D-04 0.362D-04-0.404D-04-0.193D-03-0.801D-03 0.799D-03
 Coeff-Com:  0.471D-03 0.162D-02-0.697D-03-0.886D-02-0.357D-01 0.230D-01
 Coeff-Com:  0.423D+00 0.597D+00
 Coeff:      0.264D-07 0.942D-06 0.428D-06-0.778D-07-0.137D-07-0.426D-06
 Coeff:      0.177D-04 0.362D-04-0.404D-04-0.193D-03-0.801D-03 0.799D-03
 Coeff:      0.471D-03 0.162D-02-0.697D-03-0.886D-02-0.357D-01 0.230D-01
 Coeff:      0.423D+00 0.597D+00
 Gap=     0.052 Goal=   None    Shift=    0.000
 RMSDP=1.35D-08 MaxDP=2.44D-07 DE=-9.94D-11 OVMax= 6.36D-07

 Cycle  22  Pass 1  IDiag  1:
 E= -758.541979261494     Delta-E=       -0.000000000014 Rises=F Damp=F
 DIIS: error= 8.69D-08 at cycle  22 NSaved=  20.
 NSaved=20 IEnMin=20 EnMin= -758.541979261494     IErMin=20 ErrMin= 8.69D-08
 ErrMax= 8.69D-08  0.00D+00 EMaxC= 1.00D-01 BMatC= 1.04D-12 BMatP= 2.46D-12
 IDIUse=1 WtCom= 1.00D+00 WtEn= 0.00D+00
 Coeff-Com:  0.188D-06-0.321D-06-0.266D-06 0.594D-07 0.150D-06 0.512D-05
 Coeff-Com:  0.356D-05-0.667D-05-0.526D-04-0.122D-03 0.153D-04 0.924D-04
 Coeff-Com:  0.542D-03 0.995D-03-0.400D-03-0.801D-02-0.114D-01 0.171D-01
 Coeff-Com:  0.296D+00 0.705D+00
 Coeff:      0.188D-06-0.321D-06-0.266D-06 0.594D-07 0.150D-06 0.512D-05
 Coeff:      0.356D-05-0.667D-05-0.526D-04-0.122D-03 0.153D-04 0.924D-04
 Coeff:      0.542D-03 0.995D-03-0.400D-03-0.801D-02-0.114D-01 0.171D-01
 Coeff:      0.296D+00 0.705D+00
 Gap=     0.052 Goal=   None    Shift=    0.000
 RMSDP=1.64D-08 MaxDP=2.66D-07 DE=-1.36D-11 OVMax= 1.01D-06

 Cycle  23  Pass 1  IDiag  1:
 E= -758.541979261491     Delta-E=        0.000000000003 Rises=F Damp=F
 DIIS: error= 1.25D-08 at cycle  23 NSaved=  20.
 NSaved=20 IEnMin=19 EnMin= -758.541979261494     IErMin=20 ErrMin= 1.25D-08
 ErrMax= 1.25D-08  0.00D+00 EMaxC= 1.00D-01 BMatC= 1.01D-14 BMatP= 1.04D-12
 IDIUse=1 WtCom= 1.00D+00 WtEn= 0.00D+00
 Coeff-Com: -0.363D-08-0.155D-07-0.113D-07 0.856D-07-0.131D-06-0.101D-06
 Coeff-Com:  0.363D-05 0.626D-05 0.209D-04-0.308D-04-0.170D-04-0.218D-04
 Coeff-Com:  0.105D-03 0.435D-03 0.102D-02-0.222D-02-0.186D-01-0.271D-02
 Coeff-Com:  0.563D-01 0.966D+00
 Coeff:     -0.363D-08-0.155D-07-0.113D-07 0.856D-07-0.131D-06-0.101D-06
 Coeff:      0.363D-05 0.626D-05 0.209D-04-0.308D-04-0.170D-04-0.218D-04
 Coeff:      0.105D-03 0.435D-03 0.102D-02-0.222D-02-0.186D-01-0.271D-02
 Coeff:      0.563D-01 0.966D+00
 Gap=     0.052 Goal=   None    Shift=    0.000
 RMSDP=1.77D-09 MaxDP=3.53D-08 DE= 3.18D-12 OVMax= 1.20D-07

 Error on total polarization charges =  0.00556
 SCF Done:  E(RB3LYP) =  -758.541979261     A.U. after   23 cycles
            NFock= 23  Conv=0.18D-08     -V/T= 2.0037
 KE= 7.557104201944D+02 PE=-3.649473073908D+03 EE= 1.207146657878D+03
 Leave Link  502 at Wed Feb 28 21:24:28 2018, MaxMem=   536870912 cpu:             274.0 elap:              56.8
 (Enter /n/sw/g16_nehalem/g16/l601.exe)
 Copying SCF densities to generalized density rwf, IOpCl= 0 IROHF=0.

 **********************************************************************

            Population analysis using the SCF density.

 **********************************************************************

 Orbital symmetries:
       Occupied  (A) (A) (A) (A) (A) (A) (A) (A) (A) (A) (A) (A)
                 (A) (A) (A) (A) (A) (A) (A) (A) (A) (A) (A) (A)
                 (A) (A) (A) (A) (A) (A) (A) (A) (A) (A) (A) (A)
                 (A) (A) (A) (A) (A) (A) (A) (A) (A) (A) (A) (A)
                 (A) (A) (A) (A) (A) (A)
       Virtual   (A) (A) (A) (A) (A) (A) (A) (A) (A) (A) (A) (A)
                 (A) (A) (A) (A) (A) (A) (A) (A) (A) (A) (A) (A)
                 (A) (A) (A) (A) (A) (A) (A) (A) (A) (A) (A) (A)
                 (A) (A) (A) (A) (A) (A) (A) (A) (A) (A) (A) (A)
                 (A) (A) (A) (A) (A) (A) (A) (A) (A) (A) (A) (A)
                 (A) (A) (A) (A) (A) (A) (A) (A) (A) (A) (A) (A)
                 (A) (A) (A) (A) (A) (A) (A) (A) (A) (A) (A) (A)
                 (A) (A) (A) (A) (A) (A) (A) (A) (A) (A)
 The electronic state is 1-A.
 Alpha  occ. eigenvalues --  -19.19860 -19.16595 -19.13831 -19.07030 -19.05929
 Alpha  occ. eigenvalues --  -14.38843 -14.36982 -10.36714 -10.31410 -10.25190
 Alpha  occ. eigenvalues --  -10.18475 -10.17720 -10.16350 -10.16160  -1.13375
 Alpha  occ. eigenvalues --   -1.07003  -1.05181  -1.04498  -0.94865  -0.87753
 Alpha  occ. eigenvalues --   -0.80306  -0.77305  -0.76340  -0.71224  -0.63582
 Alpha  occ. eigenvalues --   -0.61597  -0.59273  -0.53917  -0.53247  -0.51416
 Alpha  occ. eigenvalues --   -0.50074  -0.49187  -0.47528  -0.45254  -0.44433
 Alpha  occ. eigenvalues --   -0.44234  -0.42714  -0.41306  -0.40733  -0.39568
 Alpha  occ. eigenvalues --   -0.38690  -0.37341  -0.35498  -0.35220  -0.33262
 Alpha  occ. eigenvalues --   -0.31800  -0.31310  -0.29918  -0.27374  -0.25609
 Alpha  occ. eigenvalues --   -0.21555  -0.21203  -0.18539  -0.11605
 Alpha virt. eigenvalues --   -0.06420  -0.06286  -0.01906   0.06698   0.09126
 Alpha virt. eigenvalues --    0.12000   0.13025   0.13877   0.15326   0.16385
 Alpha virt. eigenvalues --    0.17400   0.18081   0.19623   0.20141   0.21360
 Alpha virt. eigenvalues --    0.22442   0.23319   0.24704   0.25494   0.27392
 Alpha virt. eigenvalues --    0.28056   0.29849   0.31387   0.32314   0.34577
 Alpha virt. eigenvalues --    0.35634   0.38624   0.53032   0.53700   0.56424
 Alpha virt. eigenvalues --    0.57214   0.58563   0.59482   0.61092   0.62124
 Alpha virt. eigenvalues --    0.63554   0.64136   0.66519   0.68380   0.68622
 Alpha virt. eigenvalues --    0.69147   0.70287   0.74038   0.76124   0.77706
 Alpha virt. eigenvalues --    0.78329   0.80741   0.81153   0.81851   0.82337
 Alpha virt. eigenvalues --    0.85422   0.86586   0.88119   0.90141   0.91324
 Alpha virt. eigenvalues --    0.91773   0.92408   0.93629   0.94482   0.95241
 Alpha virt. eigenvalues --    0.96011   0.96512   0.98715   1.00308   1.01837
 Alpha virt. eigenvalues --    1.02123   1.04024   1.05395   1.06363   1.07606
 Alpha virt. eigenvalues --    1.09092   1.10574   1.11791   1.13519   1.14688
 Alpha virt. eigenvalues --    1.15272   1.16297   1.19247   1.22949   1.26470
 Alpha virt. eigenvalues --    1.28882   1.30923   1.44846   1.49410   1.54011
 Alpha virt. eigenvalues --    1.62076   1.69933   1.71423   1.77241   1.81579
 Alpha virt. eigenvalues --    1.82406   1.92268   1.97115   2.02417
          Condensed to atoms (all electrons):
               1          2          3          4          5          6
     1  C    5.210359   0.367495   0.355929   0.284911  -0.040457  -0.039557
     2  H    0.367495   0.561689  -0.037096  -0.041150  -0.004221   0.005639
     3  H    0.355929  -0.037096   0.641940  -0.034681   0.005614  -0.007387
     4  C    0.284911  -0.041150  -0.034681   5.266863   0.377996   0.367323
     5  H   -0.040457  -0.004221   0.005614   0.377996   0.575168  -0.034734
     6  H   -0.039557   0.005639  -0.007387   0.367323  -0.034734   0.586098
     7  C   -0.033255  -0.009583   0.000602   0.189114  -0.034168  -0.039595
     8  H   -0.002278  -0.000206   0.004582  -0.039275   0.004915  -0.002997
     9  C    0.003036   0.000283   0.000100  -0.044574  -0.008028   0.000689
    10  C    0.297723  -0.027334  -0.078529  -0.039021  -0.001274   0.003159
    11  H   -0.070428   0.004386   0.001340  -0.003586   0.001205   0.003122
    12  O   -0.000087   0.000000   0.000001   0.003741   0.000050   0.000001
    13  O    0.000064  -0.000003  -0.000003   0.012877  -0.001447   0.001266
    14  H    0.000005   0.000000   0.000000  -0.000650   0.000014   0.000065
    15  N   -0.010437   0.014469  -0.000008  -0.079405  -0.003862   0.004681
    16  N   -0.055379  -0.000219  -0.013797   0.002713   0.000021   0.000168
    17  O   -0.022924   0.006578   0.002376   0.000134   0.000089  -0.000009
    18  O    0.001250  -0.001502   0.030154   0.000615   0.000003  -0.000029
    19  H   -0.000225  -0.000203  -0.000046   0.005156  -0.000022  -0.000164
    20  C    0.000459   0.000286   0.000013  -0.006167   0.002367   0.000022
    21  O    0.000006  -0.000033   0.000000  -0.000019  -0.000080   0.000001
    22  C   -0.000089   0.000011  -0.000007  -0.005366  -0.000659   0.000502
    23  H    0.000011   0.000000   0.000001   0.000012   0.000107  -0.000011
    24  H   -0.000228  -0.000021   0.000003   0.003190   0.008938   0.000009
    25  H    0.000001   0.000000   0.000000   0.000068  -0.000006  -0.000006
               7          8          9         10         11         12
     1  C   -0.033255  -0.002278   0.003036   0.297723  -0.070428  -0.000087
     2  H   -0.009583  -0.000206   0.000283  -0.027334   0.004386   0.000000
     3  H    0.000602   0.004582   0.000100  -0.078529   0.001340   0.000001
     4  C    0.189114  -0.039275  -0.044574  -0.039021  -0.003586   0.003741
     5  H   -0.034168   0.004915  -0.008028  -0.001274   0.001205   0.000050
     6  H   -0.039595  -0.002997   0.000689   0.003159   0.003122   0.000001
     7  C    5.560220   0.384064   0.133312   0.002643   0.000121  -0.094368
     8  H    0.384064   0.495418  -0.032292   0.000075   0.000006  -0.000372
     9  C    0.133312  -0.032292   5.219148  -0.000139  -0.000011   0.377056
    10  C    0.002643   0.000075  -0.000139   5.458902   0.373653   0.000000
    11  H    0.000121   0.000006  -0.000011   0.373653   0.611044   0.000000
    12  O   -0.094368  -0.000372   0.377056   0.000000   0.000000   8.360452
    13  O   -0.101010   0.001467   0.131562   0.000004  -0.000003  -0.095046
    14  H    0.007308  -0.000077  -0.007876   0.000000   0.000000   0.002402
    15  N    0.163318  -0.032249  -0.043823   0.000000  -0.000013  -0.001087
    16  N   -0.000163  -0.000002   0.000001   0.147759  -0.055746   0.000000
    17  O    0.000007   0.000001   0.000000  -0.056490   0.008565   0.000000
    18  O    0.000006  -0.000005   0.000000  -0.123723   0.004030   0.000000
    19  H   -0.035322  -0.005460   0.003556   0.000004   0.000000   0.001055
    20  C    0.001534   0.003013  -0.010351  -0.000021   0.000001  -0.000117
    21  O    0.004824  -0.000111  -0.000727   0.000000   0.000000  -0.000107
    22  C   -0.027873   0.001457  -0.090603   0.000008  -0.000003  -0.126444
    23  H    0.005213  -0.000018  -0.012441   0.000000   0.000000   0.008097
    24  H   -0.011450   0.000648  -0.020617  -0.000006   0.000005   0.000998
    25  H   -0.000017  -0.000014   0.003397   0.000000   0.000000   0.003483
              13         14         15         16         17         18
     1  C    0.000064   0.000005  -0.010437  -0.055379  -0.022924   0.001250
     2  H   -0.000003   0.000000   0.014469  -0.000219   0.006578  -0.001502
     3  H   -0.000003   0.000000  -0.000008  -0.013797   0.002376   0.030154
     4  C    0.012877  -0.000650  -0.079405   0.002713   0.000134   0.000615
     5  H   -0.001447   0.000014  -0.003862   0.000021   0.000089   0.000003
     6  H    0.001266   0.000065   0.004681   0.000168  -0.000009  -0.000029
     7  C   -0.101010   0.007308   0.163318  -0.000163   0.000007   0.000006
     8  H    0.001467  -0.000077  -0.032249  -0.000002   0.000001  -0.000005
     9  C    0.131562  -0.007876  -0.043823   0.000001   0.000000   0.000000
    10  C    0.000004   0.000000   0.000000   0.147759  -0.056490  -0.123723
    11  H   -0.000003   0.000000  -0.000013  -0.055746   0.008565   0.004030
    12  O   -0.095046   0.002402  -0.001087   0.000000   0.000000   0.000000
    13  O    8.495355   0.233131   0.002223   0.000000   0.000000   0.000000
    14  H    0.233131   0.345011  -0.000197   0.000000   0.000000   0.000000
    15  N    0.002223  -0.000197   7.310528   0.000001  -0.000003   0.000000
    16  N    0.000000   0.000000   0.000001   6.951333   0.030413   0.063188
    17  O    0.000000   0.000000  -0.000003   0.030413   8.687065  -0.127714
    18  O    0.000000   0.000000   0.000000   0.063188  -0.127714   8.712680
    19  H   -0.000024   0.000003   0.305360   0.000000   0.000000   0.000000
    20  C    0.001657   0.000012   0.133233   0.000000   0.000000   0.000000
    21  O   -0.000038   0.000004  -0.101358   0.000000   0.000000   0.000000
    22  C   -0.084858   0.002009  -0.151890   0.000000   0.000000   0.000000
    23  H   -0.014234   0.003870   0.004117   0.000000   0.000000   0.000000
    24  H   -0.038180  -0.001478   0.006924   0.000000   0.000000   0.000000
    25  H    0.003268  -0.000483   0.003050   0.000000   0.000000   0.000000
              19         20         21         22         23         24
     1  C   -0.000225   0.000459   0.000006  -0.000089   0.000011  -0.000228
     2  H   -0.000203   0.000286  -0.000033   0.000011   0.000000  -0.000021
     3  H   -0.000046   0.000013   0.000000  -0.000007   0.000001   0.000003
     4  C    0.005156  -0.006167  -0.000019  -0.005366   0.000012   0.003190
     5  H   -0.000022   0.002367  -0.000080  -0.000659   0.000107   0.008938
     6  H   -0.000164   0.000022   0.000001   0.000502  -0.000011   0.000009
     7  C   -0.035322   0.001534   0.004824  -0.027873   0.005213  -0.011450
     8  H   -0.005460   0.003013  -0.000111   0.001457  -0.000018   0.000648
     9  C    0.003556  -0.010351  -0.000727  -0.090603  -0.012441  -0.020617
    10  C    0.000004  -0.000021   0.000000   0.000008   0.000000  -0.000006
    11  H    0.000000   0.000001   0.000000  -0.000003   0.000000   0.000005
    12  O    0.001055  -0.000117  -0.000107  -0.126444   0.008097   0.000998
    13  O   -0.000024   0.001657  -0.000038  -0.084858  -0.014234  -0.038180
    14  H    0.000003   0.000012   0.000004   0.002009   0.003870  -0.001478
    15  N    0.305360   0.133233  -0.101358  -0.151890   0.004117   0.006924
    16  N    0.000000   0.000000   0.000000   0.000000   0.000000   0.000000
    17  O    0.000000   0.000000   0.000000   0.000000   0.000000   0.000000
    18  O    0.000000   0.000000   0.000000   0.000000   0.000000   0.000000
    19  H    0.394165  -0.016900   0.000368   0.006020  -0.000332  -0.000198
    20  C   -0.016900   4.781999   0.517965   0.195228  -0.033435  -0.030493
    21  O    0.000368   0.517965   8.164987  -0.093826   0.001070   0.003120
    22  C    0.006020   0.195228  -0.093826   5.932176   0.350671   0.349162
    23  H   -0.000332  -0.033435   0.001070   0.350671   0.477527  -0.029005
    24  H   -0.000198  -0.030493   0.003120   0.349162  -0.029005   0.517292
    25  H   -0.000048  -0.008914  -0.001762   0.337046  -0.009647  -0.015632
              25
     1  C    0.000001
     2  H    0.000000
     3  H    0.000000
     4  C    0.000068
     5  H   -0.000006
     6  H   -0.000006
     7  C   -0.000017
     8  H   -0.000014
     9  C    0.003397
    10  C    0.000000
    11  H    0.000000
    12  O    0.003483
    13  O    0.003268
    14  H   -0.000483
    15  N    0.003050
    16  N    0.000000
    17  O    0.000000
    18  O    0.000000
    19  H   -0.000048
    20  C   -0.008914
    21  O   -0.001762
    22  C    0.337046
    23  H   -0.009647
    24  H   -0.015632
    25  H    0.510474
 Mulliken charges:
               1
     1  C   -0.245905
     2  H    0.160735
     3  H    0.128899
     4  C   -0.220818
     5  H    0.152470
     6  H    0.151744
     7  C   -0.065486
     8  H    0.219710
     9  C    0.399342
    10  C    0.042608
    11  H    0.122312
    12  O   -0.439709
    13  O   -0.548028
    14  H    0.416927
    15  N   -0.523570
    16  N   -0.070290
    17  O   -0.528086
    18  O   -0.558954
    19  H    0.343258
    20  C    0.468609
    21  O   -0.494284
    22  C   -0.592673
    23  H    0.248429
    24  H    0.257018
    25  H    0.175743
 Sum of Mulliken charges =  -1.00000
 Mulliken charges with hydrogens summed into heavy atoms:
               1
     1  C    0.043730
     4  C    0.083396
     7  C    0.154224
     9  C    0.399342
    10  C    0.164920
    12  O   -0.439709
    13  O   -0.131102
    15  N   -0.180311
    16  N   -0.070290
    17  O   -0.528086
    18  O   -0.558954
    20  C    0.468609
    21  O   -0.494284
    22  C    0.088517
 Electronic spatial extent (au):  <R**2>=           3818.4606
 Charge=             -1.0000 electrons
 Dipole moment (field-independent basis, Debye):
    X=             19.0279    Y=             -7.1274    Z=             -0.6675  Tot=             20.3300
 Quadrupole moment (field-independent basis, Debye-Ang):
   XX=           -181.8466   YY=           -100.2422   ZZ=            -81.2922
   XY=             -6.2371   XZ=             -0.7673   YZ=              7.2843
 Traceless Quadrupole moment (field-independent basis, Debye-Ang):
   XX=            -60.7196   YY=             20.8848   ZZ=             39.8348
   XY=             -6.2371   XZ=             -0.7673   YZ=              7.2843
 Octapole moment (field-independent basis, Debye-Ang**2):
  XXX=            385.2819  YYY=            -54.1784  ZZZ=              6.9203  XYY=              6.2860
  XXY=            -68.5543  XXZ=            -55.0777  XZZ=             20.2294  YZZ=              3.3959
  YYZ=              4.5780  XYZ=              0.8430
 Hexadecapole moment (field-independent basis, Debye-Ang**3):
 XXXX=          -5461.6608 YYYY=           -841.5720 ZZZZ=           -304.6033 XXXY=            -64.6037
 XXXZ=              8.1445 YYYX=           -132.8364 YYYZ=             25.3585 ZZZX=             -5.6360
 ZZZY=             16.4178 XXYY=           -872.5063 XXZZ=           -720.2862 YYZZ=           -167.8898
 XXYZ=            113.3187 YYXZ=            -14.4660 ZZXY=              4.3317
 N-N= 9.280740165736D+02 E-N=-3.649473073696D+03  KE= 7.557104201944D+02
 No NMR shielding tensors so no spin-rotation constants.
 Leave Link  601 at Wed Feb 28 21:24:28 2018, MaxMem=   536870912 cpu:               0.4 elap:               0.1
 (Enter /n/sw/g16_nehalem/g16/l701.exe)
 ... and contract with generalized density number  0.
 Compute integral first derivatives.
 R6Disp: Adding Grimme-D3(BJ) dispersion energy 1st derivatives to the gradient.
 D1PCM: PCM CHGder 1st derivatives, ID1Alg=3 FixD1E=F DoIter=F DoCFld=F I1PDM=0.
 GePol: Maximum number of non-zero 1st derivatives   =     222
 Leave Link  701 at Wed Feb 28 21:24:29 2018, MaxMem=   536870912 cpu:               5.9 elap:               1.2
 (Enter /n/sw/g16_nehalem/g16/l702.exe)
 L702 exits ... SP integral derivatives will be done elsewhere.
 Leave Link  702 at Wed Feb 28 21:24:29 2018, MaxMem=   536870912 cpu:               0.1 elap:               0.0
 (Enter /n/sw/g16_nehalem/g16/l703.exe)
 Integral derivatives from FoFJK, PRISM(SPDF).
 Compute integral first derivatives, UseDBF=F ICtDFT=           0.
 Calling FoFJK, ICntrl=      2127 FMM=F ISym2X=0 I1Cent= 0 IOpClX= 0 NMat=1 NMatS=1 NMatT=0.
 FoFJK:  IHMeth= 1 ICntrl=    2127 DoSepK=F KAlg= 0 I1Cent=           0 FoldK=F
 IRaf=         0 NMat=       1 IRICut=       1 DoRegI=T DoRafI=F ISym2E= 0 IDoP0=0 IntGTp=1.
 FoFCou: FMM=F IPFlag=           0 FMFlag=      100000 FMFlg1=         800
         NFxFlg=           0 DoJE=F BraDBF=F KetDBF=F FulRan=T
         wScrn=  0.000000 ICntrl=      2127 IOpCl=  0 I1Cent=           0 NGrid=           0
         NMat0=    1 NMatS0=      1 NMatT0=    0 NMatD0=    1 NMtDS0=    0 NMtDT0=    0
 Symmetry not used in FoFCou.
 Leave Link  703 at Wed Feb 28 21:24:34 2018, MaxMem=   536870912 cpu:              23.6 elap:               4.7
 (Enter /n/sw/g16_nehalem/g16/l716.exe)
 Dipole        = 7.48616612D+00-2.80412480D+00-2.62601748D-01
 ***** Axes restored to original set *****
 -------------------------------------------------------------------
 Center     Atomic                   Forces (Hartrees/Bohr)
 Number     Number              X              Y              Z
 -------------------------------------------------------------------
      1        6           0.052879543   -0.017717354    0.012331048
      2        1          -0.001103541    0.013265327   -0.010074925
      3        1          -0.022617875   -0.008524081   -0.004882285
      4        6          -0.023579394    0.007281880   -0.025751363
      5        1           0.017237514   -0.000892885    0.001512375
      6        1          -0.003013889   -0.007918574    0.015535148
      7        6           0.033454208   -0.035214184    0.020095816
      8        1          -0.015674241    0.003321906    0.004029283
      9        6          -0.073236048    0.005051949    0.045938282
     10        6           0.043481737    0.085220738    0.070107097
     11        1          -0.008681806   -0.007536115    0.021785894
     12        8          -0.047254938   -0.029882850    0.016220637
     13        8          -0.066088875   -0.028241969    0.002197533
     14        1           0.002333686    0.011784896    0.018396290
     15        7           0.035757044    0.032015742    0.044887559
     16        7          -0.035905203   -0.036337275   -0.075937373
     17        8           0.021590570    0.013212610   -0.016457140
     18        8          -0.047739229   -0.048484841    0.004936567
     19        1          -0.008652412    0.007706446   -0.021564005
     20        6           0.014445158    0.018347937   -0.026383046
     21        8          -0.014311069   -0.013480766    0.007076599
     22        6           0.054108335    0.013285093   -0.074509507
     23        1           0.041669723    0.020359887   -0.004833446
     24        1           0.032992254    0.001744300   -0.014708145
     25        1           0.017908746    0.001632182   -0.009948894
 -------------------------------------------------------------------
 Cartesian Forces:  Max     0.085220738 RMS     0.031280410
 Leave Link  716 at Wed Feb 28 21:24:34 2018, MaxMem=   536870912 cpu:               0.1 elap:               0.0
 (Enter /n/sw/g16_nehalem/g16/l103.exe)

 GradGradGradGradGradGradGradGradGradGradGradGradGradGradGradGradGradGrad
 Berny optimization.
 FormGI is forming the generalized inverse of G from B-inverse, IUseBI=4.
 Internal  Forces:  Max     0.793992100 RMS     0.103046443
 Search for a local minimum.
 Step number   1 out of a maximum of  126
 All quantities printed in internal units (Hartrees-Bohrs-Radians)
 RMS Force = .10305D+00 SwitMx=.10000D-02 MixMth= 1
 Mixed Optimization -- RFO/linear search
 Second derivative matrix not updated -- first step.
 ITU=  0
     Eigenvalues ---    0.00237   0.00237   0.00237   0.00237   0.00237
     Eigenvalues ---    0.00449   0.00500   0.00766   0.00766   0.01295
     Eigenvalues ---    0.01382   0.03099   0.03399   0.03840   0.04356
     Eigenvalues ---    0.04828   0.04896   0.05056   0.05410   0.06194
     Eigenvalues ---    0.07243   0.07243   0.07655   0.08669   0.09838
     Eigenvalues ---    0.11287   0.11701   0.12376   0.16000   0.16000
     Eigenvalues ---    0.16000   0.16000   0.16000   0.16855   0.17980
     Eigenvalues ---    0.21948   0.21983   0.22000   0.23464   0.25000
     Eigenvalues ---    0.25000   0.25000   0.25000   0.25000   0.25000
     Eigenvalues ---    0.28519   0.28519   0.28519   0.28519   0.28519
     Eigenvalues ---    0.35740   0.35740   0.37230   0.37230   0.37230
     Eigenvalues ---    0.37230   0.37230   0.37230   0.37230   0.37230
     Eigenvalues ---    0.37230   0.40989   0.47688   0.52948   0.52948
     Eigenvalues ---    0.55473   0.69002   0.80209   0.80209
 RFO step:  Lambda=-1.00990134D+00 EMin= 2.36824145D-03
 Linear search not attempted -- first point.
 Maximum step size (   0.300) exceeded in Quadratic search.
    -- Step size scaled by   0.365
 Iteration  1 RMS(Cart)=  0.22636644 RMS(Int)=  0.01232812
 Iteration  2 RMS(Cart)=  0.07447464 RMS(Int)=  0.00102917
 Iteration  3 RMS(Cart)=  0.00226406 RMS(Int)=  0.00036260
 Iteration  4 RMS(Cart)=  0.00000173 RMS(Int)=  0.00036260
 Iteration  5 RMS(Cart)=  0.00000000 RMS(Int)=  0.00036260
 ITry= 1 IFail=0 DXMaxC= 1.07D+00 DCOld= 1.00D+10 DXMaxT= 3.00D-01 DXLimC= 3.00D+00 Rises=F
 Variable       Old X    -DE/DX   Delta X   Delta X   Delta X     New X
                                 (Linear)    (Quad)   (Total)
    R1        2.02201   0.01411   0.00000   0.00373   0.00373   2.02573
    R2        2.02201   0.02261   0.00000   0.00597   0.00597   2.02798
    R3        2.91018   0.00113   0.00000   0.00032   0.00032   2.91050
    R4        2.91018  -0.01479   0.00000  -0.00417  -0.00417   2.90601
    R5        2.02201   0.01724   0.00000   0.00455   0.00455   2.02656
    R6        2.02201   0.01742   0.00000   0.00460   0.00460   2.02661
    R7        2.91018   0.00550   0.00000   0.00155   0.00155   2.91173
    R8        2.02201   0.01567   0.00000   0.00414   0.00414   2.02614
    R9        2.91018  -0.01295   0.00000  -0.00365  -0.00365   2.90653
   R10        2.77790   0.17828   0.00000   0.04759   0.04759   2.82549
   R11        2.37803  -0.01468   0.00000  -0.00296  -0.00296   2.37507
   R12        2.70231  -0.01496   0.00000  -0.00385  -0.00385   2.69846
   R13        2.02201   0.01379   0.00000   0.00364   0.00364   2.02565
   R14        2.44455   0.12465   0.00000   0.02677   0.02677   2.47131
   R15        1.81414   0.02162   0.00000   0.00504   0.00504   1.81918
   R16        1.88973   0.01857   0.00000   0.00456   0.00456   1.89429
   R17        2.77790   0.11102   0.00000   0.02964   0.02964   2.80753
   R18        2.57003   0.02642   0.00000   0.00626   0.00626   2.57629
   R19        2.57003   0.05205   0.00000   0.01234   0.01234   2.58237
   R20        2.37803  -0.01884   0.00000  -0.00380  -0.00380   2.37424
   R21        2.91018  -0.03554   0.00000  -0.01002  -0.01002   2.90016
   R22        2.02201  -0.01133   0.00000  -0.00299  -0.00299   2.01902
   R23        2.02201  -0.00793   0.00000  -0.00209  -0.00209   2.01991
   R24        2.02201   0.01813   0.00000   0.00479   0.00479   2.02680
    A1        1.91063  -0.00119   0.00000  -0.00047  -0.00047   1.91017
    A2        1.91063  -0.00488   0.00000  -0.00146  -0.00146   1.90917
    A3        1.91063   0.00600   0.00000   0.00204   0.00204   1.91267
    A4        1.91063   0.00480   0.00000   0.00155   0.00156   1.91219
    A5        1.91063  -0.01112   0.00000  -0.00360  -0.00360   1.90703
    A6        1.91063   0.00639   0.00000   0.00193   0.00193   1.91256
    A7        1.91063  -0.00181   0.00000  -0.00050  -0.00050   1.91013
    A8        1.91063  -0.00227   0.00000  -0.00066  -0.00066   1.90997
    A9        1.91063   0.00900   0.00000   0.00270   0.00270   1.91334
   A10        1.91063   0.00015   0.00000  -0.00006  -0.00006   1.91058
   A11        1.91063  -0.00220   0.00000  -0.00063  -0.00063   1.91000
   A12        1.91063  -0.00286   0.00000  -0.00086  -0.00086   1.90978
   A13        1.91063   0.05475   0.00000   0.01543   0.01497   1.92560
   A14        1.91063  -0.02239   0.00000  -0.00561  -0.00561   1.90502
   A15        1.91063  -0.09011   0.00000  -0.02618  -0.02659   1.88404
   A16        1.91063  -0.11092   0.00000  -0.03625  -0.03597   1.87466
   A17        1.91063  -0.06106   0.00000  -0.02038  -0.01997   1.89066
   A18        1.91063   0.22973   0.00000   0.07299   0.07330   1.98394
   A19        2.09836  -0.01161   0.00000  -0.00336  -0.00345   2.09490
   A20        2.09241  -0.00185   0.00000  -0.00053  -0.00062   2.09179
   A21        2.09241   0.01345   0.00000   0.00390   0.00381   2.09622
   A22        2.09241  -0.00590   0.00000  -0.00180  -0.00180   2.09062
   A23        2.09836   0.00561   0.00000   0.00166   0.00166   2.10002
   A24        2.09241   0.00030   0.00000   0.00013   0.00013   2.09255
   A25        1.91114   0.00090   0.00000   0.00028   0.00028   1.91142
   A26        1.91063  -0.25664   0.00000  -0.07506  -0.07635   1.83428
   A27        1.91063   0.79399   0.00000   0.23375   0.23363   2.14426
   A28        1.91063  -0.14955   0.00000  -0.03967  -0.03860   1.87203
   A29        1.91063  -0.01920   0.00000  -0.00507  -0.00509   1.90554
   A30        1.91063   0.06358   0.00000   0.01892   0.01890   1.92953
   A31        1.91063   0.01551   0.00000   0.00549   0.00545   1.91608
[...]
 80930,0.00043849,0.00246273,-0.00252666,0.00029059,0.00010003,0.000584
 88,0.00097788,0.00003560,0.00011209,0.00007130,-0.00006034,0.00005795,
 0.00003157,0.00000286,0.00003716,-0.00076946,-0.00002141,0.00006585,0.
 00007995,0.00040734,0.00014704,0.00125033,-0.02388333,0.01671060,-0.07
 499752,-0.00085324,-0.00306793,-0.00116511,-0.00037847,-0.00039529,-0.
 00051361,0.00011187,0.00001602,-0.00051934,-0.00003630,-0.00004409,0.0
 0003738,-0.00052873,-0.00082628,-0.00027151,-0.04510880,0.04192426,-0.
 22107063,0.07939129,-0.08371904,0.28724397,0.00853473,0.00119954,-0.00
 236698,-0.00068747,0.00185965,0.00138839,-0.00082558,-0.00073257,-0.00
 029377,0.00016016,0.00048957,-0.00076162,0.00002770,-0.00003229,-0.000
 05732,-0.00002151,-0.00012289,0.00007062,-0.00005892,0.00003805,0.0004
 2368,-0.00002482,-0.00001615,-0.00003598,-0.00022054,-0.00007993,-0.00
 058248,0.01226220,0.01319560,0.00737529,-0.00325616,-0.00164372,0.0007
 7887,0.00018090,0.00017096,0.00021582,-0.00005168,-0.00002736,0.000230
 01,0.00001341,0.00001822,-0.00001905,0.00020855,0.00028978,0.00017273,
 -0.07813990,0.05286688,-0.00008302,0.00439957,0.02563250,-0.00990865,0
 .05780426,0.00185021,0.00565048,0.00055834,-0.00018352,-0.00242026,-0.
 00039413,0.00224650,-0.00427130,-0.00151987,0.00087093,-0.00074609,0.0
 0203131,-0.00026014,0.00020745,0.00004028,0.00004885,0.00022650,-0.000
 06509,-0.00019661,0.00002796,-0.00133301,-0.00006696,0.00018259,0.0001
 3043,0.00054488,0.00009338,0.00171941,0.01513969,-0.05035405,-0.028002
 31,-0.00080733,0.00043948,0.00081178,-0.00052074,-0.00052884,-0.000722
 47,0.00015013,0.00004733,-0.00071702,-0.00004713,-0.00005828,0.0000521
 4,-0.00069190,-0.00100163,-0.00037251,0.05216971,-0.23076412,-0.026918
 79,0.02169415,-0.03392461,0.02552527,-0.09291515,0.31660824,-0.0023196
 1,0.00005113,-0.00260850,-0.00001622,-0.00131547,-0.00002282,0.0009623
 4,-0.00062788,-0.00001564,0.00057733,-0.00097304,0.00117970,-0.0000645
 1,0.00005831,0.00004178,0.00002411,0.00013562,0.00003472,-0.00011898,-
 0.00018990,-0.00076349,-0.00002045,0.00007599,0.00004023,0.00025166,-0
 .00006713,0.00060343,0.01289812,-0.04501707,0.00330417,0.00153604,-0.0
 0105380,0.00256888,-0.00020760,-0.00018141,-0.00025935,0.00004460,0.00
 003791,-0.00023110,-0.00001850,-0.00001228,0.00001615,-0.00023077,-0.0
 0027041,-0.00013055,0.00011064,-0.02733097,-0.10690095,-0.01718651,0.0
 4749776,0.00904883,0.00349296,0.02904062,0.09406499,0.00017342,0.00000
 075,-0.00001665,-0.00009920,-0.00003522,0.00001862,-0.00002721,-0.0000
 1137,-0.00004315,-0.00047932,-0.00072483,0.00171508,0.00014433,-0.0001
 4300,0.00005476,0.00007704,-0.00054990,0.00007558,0.00989335,-0.010650
 57,0.01088716,0.00159418,-0.00100126,0.00096626,-0.00040505,-0.0015148
 0,-0.00048133,-0.00006252,0.00005362,-0.00010131,0.00000358,-0.0000119
 4,0.00001167,0.00033639,0.00023091,0.00032761,-0.00027538,0.00006542,0
 .00098110,-0.00006913,0.00003897,0.00012730,-0.27312961,0.13641675,-0.
 12717769,0.00000755,0.00005968,0.00012337,-0.00001929,-0.00001920,-0.0
 0009867,0.00003425,-0.00012178,-0.00003830,0.29168243,-0.00009104,0.00
 026827,0.00059368,0.00029054,0.00006662,-0.00031029,-0.00022006,-0.000
 11240,-0.00006174,-0.00143427,-0.00166835,0.00327764,0.00005727,0.0001
 1942,-0.00002022,0.00028065,-0.00096541,-0.00007551,0.01354315,-0.0097
 4039,0.00732937,0.00006182,0.00011683,0.00030602,-0.00048107,-0.000336
 66,-0.00172403,0.00002938,0.00007373,-0.00017689,-0.00002941,0.0000807
 5,-0.00000550,0.00026244,-0.00026319,0.00014237,0.00006829,-0.00006773
 ,0.00008871,0.00000228,0.00000738,-0.00007667,0.14024499,-0.13076523,0
 .11252732,-0.00000252,-0.00005952,-0.00010689,0.00000918,-0.00000081,0
 .00003696,-0.00002346,0.00006541,0.00001845,-0.14180599,0.13453217,-0.
 00018495,-0.00012172,0.00018666,0.00014061,0.00009091,-0.00002764,-0.0
 0006304,-0.00005951,0.00002079,0.00108274,-0.00119729,-0.00094683,-0.0
 0004269,-0.00002490,-0.00009435,-0.00020110,0.00021896,0.00007791,-0.0
 1581927,0.01023055,-0.00970525,-0.00007417,0.00066704,0.00007590,0.000
 50994,0.00330301,-0.00183124,0.00004930,-0.00000281,-0.00000356,-0.000
 00489,0.00002493,-0.00001360,-0.00012007,-0.00072109,0.00044165,-0.000
 05171,-0.00047721,-0.00087089,0.00017716,0.00001358,-0.00017939,-0.126
 60819,0.11055343,-0.12544084,0.00000500,-0.00005042,-0.00008568,0.0000
 0593,0.00001893,0.00005548,-0.00002653,0.00007612,0.00002259,0.1306857
 4,-0.11798590,0.12954685,-0.00201276,0.00058838,-0.00119400,0.00098671
 ,-0.00076406,-0.00095006,0.00002271,-0.00030956,-0.00000023,0.00401085
 ,0.00010478,-0.00217150,-0.00061177,0.00138053,-0.00045517,-0.00112309
 ,0.00225271,-0.00036404,-0.00428855,-0.01637666,0.01559330,0.00314408,
 0.00184402,-0.00247032,0.00244164,0.00533801,0.00550904,0.00060913,-0.
 00001514,0.00084069,-0.00008049,0.00031717,0.00002763,-0.00251203,-0.0
 0129614,-0.00404037,0.00065845,0.00011255,-0.00716167,0.00012057,0.000
 07987,-0.00063796,-0.30837828,-0.02216037,0.03884138,-0.00006523,-0.00
 057531,-0.00131679,0.00018504,0.00013122,0.00091635,-0.00038472,0.0012
 0570,0.00038614,-0.03317171,-0.00987085,0.00927845,0.63188265,-0.00113
 447,-0.00077184,-0.00023154,0.00016709,-0.00115596,-0.00184775,0.00044
 905,0.00023235,0.00001828,-0.00034356,-0.00016181,-0.00041128,0.000210
 22,-0.00065909,0.00046701,0.00055911,0.00094242,-0.00037449,-0.0231570
 9,-0.01107042,0.00420282,-0.00022741,-0.00119353,0.00232789,0.00060295
 ,0.00134979,0.00165524,0.00067163,0.00010969,0.00065511,-0.00010592,0.
 00028006,-0.00000535,0.00068940,-0.00018223,-0.00168461,0.00020598,0.0
 0033729,-0.00292109,0.00002129,0.00006038,-0.00012741,-0.02815314,-0.0
 9848999,0.04830547,-0.00003725,-0.00065116,-0.00128250,0.00022069,0.00
 011885,0.00083329,-0.00036044,0.00111465,0.00032351,0.02304399,0.00893
 933,-0.00583155,0.00576310,0.52282164,0.00062344,-0.00039128,0.0007244
 0,-0.00032345,-0.00025274,0.00055956,-0.00008618,0.00002712,-0.0001265
 1,-0.00163993,-0.00066697,0.00167107,0.00003528,0.00054879,-0.00040413
 ,-0.00004045,-0.00092621,0.00007555,0.02427219,0.00514391,-0.01261336,
 -0.00024943,0.00092198,-0.00132936,0.00557513,0.00314234,-0.00545103,-
 0.00033048,0.00014726,-0.00046603,0.00006369,-0.00013428,-0.00003517,-
 0.00224090,-0.00076516,0.00381643,-0.00162679,-0.00173086,0.00397128,-
 0.00010520,0.00006251,-0.00026796,0.03537578,0.04500273,-0.10723703,0.
 00003774,0.00029394,0.00070088,-0.00008815,-0.00002696,-0.00048775,0.0
 0017956,-0.00059960,-0.00019667,-0.02073610,-0.00446814,0.00999763,-0.
 02375272,-0.31201506,0.54073366,0.00037095,-0.00011943,0.00042059,-0.0
 0013859,0.00011729,0.00000311,0.00003253,0.00008653,0.00001016,-0.0011
 5377,0.00009534,0.00087488,0.00021299,-0.00047329,0.00010529,0.0004190
 3,-0.00071773,0.00002440,-0.00218527,0.00319579,-0.00305865,-0.0006952
 2,-0.00086678,0.00126489,-0.00136968,-0.00237960,-0.00202510,-0.000105
 58,0.00003367,-0.00028548,0.00001672,-0.00004151,0.00000095,0.00095289
 ,0.00086278,0.00087578,-0.00006154,0.00017577,0.00197210,-0.00002778,-
 0.00002310,0.00021582,-0.01539813,-0.05185693,0.05479068,-0.00000087,0
 .00009690,0.00027452,-0.00002899,-0.00002735,-0.00019600,0.00008151,-0
 .00025467,-0.00008378,0.00649087,0.00112222,-0.00123031,-0.10133200,-0
 .02444385,0.02529024,0.10646200,0.00056410,0.00001677,0.00061834,-0.00
 015738,0.00020413,0.00037712,-0.00008938,0.00002480,-0.00005557,-0.000
 85748,0.00073258,0.00052757,0.00032907,0.00015061,-0.00020517,0.000073
 52,-0.00080947,0.00011115,0.00169766,0.00962210,-0.00259540,-0.0005929
 3,-0.00066254,0.00088356,-0.00107905,-0.00228199,-0.00298204,-0.000308
 52,0.00007621,-0.00053362,0.00006546,-0.00010125,-0.00000352,-0.000049
 96,0.00074397,0.00169077,-0.00027746,-0.00021283,0.00340489,-0.0000235
 9,-0.00007585,0.00017300,-0.03867635,-0.01984579,0.03961257,0.00000330
 ,0.00028076,0.00066860,-0.00008396,-0.00004787,-0.00045337,0.00017762,
 -0.00058257,-0.00018310,-0.00032289,-0.00329934,-0.00202719,-0.0138376
 6,-0.30533237,0.24340054,0.04680750,0.33349837,-0.00061081,0.00011786,
 -0.00073979,0.00020972,-0.00017177,-0.00048194,0.00008830,-0.00004026,
 0.00005947,0.00164800,0.00018057,-0.00157872,-0.00035663,-0.00021062,0
 .00026309,-0.00025531,0.00109504,-0.00005716,-0.00101818,-0.00295827,0
 .00987428,0.00065690,0.00100192,-0.00122773,0.00001939,0.00136670,0.00
 414447,0.00030771,-0.00009641,0.00051159,-0.00005955,0.00011416,0.0000
 2008,-0.00014115,-0.00087860,-0.00189023,0.00042409,0.00030682,-0.0031
 2500,0.00002593,0.00002573,-0.00009651,0.04218463,0.04194473,-0.023214
 64,-0.00002013,-0.00028885,-0.00070596,0.00009288,0.00004029,0.0004889
 5,-0.00018429,0.00060454,0.00019667,-0.00039721,-0.00236459,-0.0035567
 1,0.01448712,0.24291593,-0.32354387,-0.05045822,-0.31530330,0.35658713
 ,-0.00005070,0.00023343,0.00035790,0.00002089,0.00006452,0.00011928,-0
 .00001644,-0.00004239,-0.00007631,-0.00014977,-0.00223359,0.00139951,-
 0.00242258,-0.00098431,0.00000684,-0.00064051,-0.00002880,-0.00012253,
 0.00050458,0.00013232,-0.00082762,0.00008079,-0.00000474,0.00000103,0.
 00047272,0.00059988,-0.00014247,-0.00004221,0.00012758,-0.00014365,0.0
 0001524,-0.00001400,0.00001341,-0.00136408,0.00041902,0.00093857,-0.00
 008644,-0.00027894,0.00046598,0.00001961,0.00003826,-0.00006178,-0.030
 69321,0.01662151,-0.01360023,-0.00000340,0.00009146,0.00017059,-0.0000
 1878,-0.00003796,-0.00013015,0.00005472,-0.00017270,-0.00004862,-0.002
 05420,-0.00141966,0.00225862,-0.16585930,0.03452311,-0.03184092,0.0068
 9664,0.00372493,-0.00486133,0.52586790,-0.00014661,0.00011192,-0.00006
 953,-0.00022254,-0.00015314,-0.00001832,-0.00000299,-0.00002569,-0.000
 11107,0.00052589,-0.00124702,0.00064800,-0.00208432,-0.00057971,0.0003
 9052,-0.00039149,-0.00005406,-0.00011202,0.00079084,-0.00083440,-0.000
 38114,0.00005423,0.00009358,-0.00010535,-0.00025482,-0.00059971,-0.000
 37884,0.00006398,0.00005611,0.00004147,-0.00000723,-0.00000038,0.00000
 041,0.00160652,0.00002960,-0.00067294,0.00008952,0.00044089,-0.0004448
 0,0.00000587,-0.00000513,0.00004333,-0.00470680,0.01322484,-0.00143888
 ,0.00001392,-0.00002940,-0.00004527,0.00000195,-0.00001949,0.00001046,
 0.00000095,0.00000853,-0.00000424,-0.00378966,0.00275114,0.00323914,0.
 03055781,-0.10598507,0.01249903,0.02279438,-0.01128220,0.03193278,0.04
 960589,0.54897669,-0.00032038,-0.00007263,-0.00041160,-0.00024121,-0.0
 0010198,-0.00001301,0.00002945,-0.00008190,0.00002158,-0.00008484,0.00
 050840,-0.00054926,0.00092780,0.00086571,0.00030330,0.00024351,-0.0001
 8614,0.00004039,-0.00018185,-0.00046625,0.00019605,-0.00011620,0.00003
 242,-0.00002063,0.00036051,0.00014486,-0.00029645,0.00008274,0.0000181
 2,0.00002667,-0.00001212,0.00000192,-0.00000384,-0.00015599,0.00003699
 ,-0.00034579,0.00004325,-0.00011499,0.00014184,0.00004054,-0.00003186,
 0.00001849,0.00703664,-0.00277426,0.01160969,0.00000137,-0.00005560,-0
 .00009454,0.00001532,-0.00000531,0.00005669,-0.00001608,0.00006175,0.0
 0001134,0.00337448,0.00277515,0.00171117,-0.03056122,0.01543814,-0.105
 47289,-0.02491630,0.03386553,-0.00937287,-0.03894831,-0.00850267,0.570
 63452,0.00000635,0.00005026,-0.00016160,-0.00003077,0.00001611,0.00004
 583,0.00001854,0.00000924,0.00004648,-0.00051008,-0.00051997,0.0001112
 4,-0.00032985,-0.00064136,-0.00006898,0.00005225,-0.00003177,-0.000015
 86,-0.00060767,-0.00030958,-0.00076711,0.00005760,-0.00002175,0.000215
 18,-0.00361643,-0.00216980,0.00177817,0.00004224,-0.00002559,0.0001136
 2,-0.00000946,0.00000196,-0.00000351,0.00098337,0.00095582,0.00030788,
 0.00048854,0.00084106,-0.00088014,-0.00003183,0.00000049,0.00019940,-0
 .00098788,0.00000333,0.00197621,0.00000342,-0.00002473,-0.00007212,0.0
 0000484,0.00000948,0.00005096,-0.00002048,0.00006710,0.00002081,0.0004
 3977,0.00041578,0.00038067,0.00594224,-0.00033067,-0.03095743,-0.00325
 659,0.00421506,-0.00058063,-0.05303918,-0.00310129,0.01964582,0.055325
 11,0.00003106,-0.00009443,-0.00025007,-0.00002770,-0.00002676,0.000081
 24,0.00001795,-0.00002214,0.00011161,-0.00063691,0.00017970,-0.0004318
 3,-0.00038838,-0.00114503,0.00006023,0.00025041,0.00003657,0.00002616,
 -0.00017117,0.00027222,-0.00012916,0.00006130,-0.00007630,-0.00006154,
 0.00130618,0.00190020,0.00035576,0.00003871,-0.00001925,0.00004768,-0.
 00000906,0.00000088,0.00000206,-0.00117930,-0.00077089,-0.00011849,-0.
 00033756,-0.00063994,0.00029370,-0.00000119,0.00003269,-0.00010833,-0.
 00048065,0.00001575,-0.00111434,0.00000669,-0.00002865,-0.00005985,0.0
 0000353,0.00000991,0.00005052,-0.00001704,0.00005879,0.00001703,-0.000
 12154,-0.00025921,-0.00013326,-0.00296832,-0.00228364,0.01768035,0.003
 98196,-0.00270097,0.00097932,-0.00244076,-0.04456261,0.01335448,0.0012
 4660,0.04869996,0.00021329,0.00002438,-0.00010187,-0.00000553,0.000006
 12,0.00006666,0.00001632,0.00004831,0.00010845,-0.00026999,0.00066407,
 -0.00022175,0.00070361,-0.00026634,0.00011710,0.00033886,0.00006170,0.
 00005201,-0.00049953,-0.00010132,-0.00002167,0.00004407,-0.00007715,0.
 00000841,0.00080799,-0.00028051,0.00000394,0.00002457,-0.00003676,0.00
 004805,-0.00000810,-0.00000365,-0.00000157,0.00187205,-0.00058226,-0.0
 0171628,0.00000199,0.00016355,-0.00003536,-0.00003038,-0.00003240,0.00
 000682,-0.00066391,0.00016787,0.00075577,0.00000521,-0.00002062,-0.000
 04684,0.00000014,0.00000802,0.00003952,-0.00001270,0.00004508,0.000013
 77,0.00004370,0.00025386,0.00020006,0.00474313,0.00133966,-0.01163516,
 -0.00281209,0.00032910,-0.00033179,0.01685868,0.01364471,-0.32109808,-
 0.02175091,-0.01664159,0.35064574,-0.00029894,-0.00055174,0.00033845,-
 0.00022892,0.00004436,-0.00075014,0.00027631,0.00023409,-0.00005068,-0
 .00099247,-0.00005532,0.00034874,-0.00056115,-0.00087413,0.00106677,0.
 00029592,0.00002315,-0.00010823,-0.00027103,0.00081942,0.00023996,0.00
 006534,-0.00014035,0.00000934,0.00026713,0.00018913,0.00015492,0.00017
 947,-0.00007426,0.00015954,-0.00002346,0.00007073,-0.00001135,-0.00028
 761,-0.00009864,0.00010081,-0.00002848,-0.00009043,0.00004648,-0.00001
 214,-0.00001535,0.00000631,-0.00146750,-0.00175277,-0.00144071,-0.0000
 2081,-0.00022510,-0.00032274,0.00006536,0.00005262,0.00022242,-0.00008
 815,0.00030797,0.00006691,0.00004725,-0.00081268,-0.00073842,-0.002260
 06,0.02988561,0.01231345,-0.00122324,-0.00129074,-0.00249420,-0.049837
 69,0.02519352,0.00932537,-0.00024082,0.00208783,0.00111101,0.05331258,
 -0.00014740,0.00013596,0.00017106,0.00001940,0.00008045,0.00007718,0.0
 0000327,0.00001611,0.00002336,-0.00055880,-0.00062856,0.00074818,-0.00
 137564,-0.00042069,0.00045065,-0.00023544,0.00004871,-0.00006086,0.000
 17872,-0.00034080,-0.00023449,0.00001575,0.00000208,-0.00003940,-0.000
 22616,-0.00008504,0.00016541,0.00018271,0.00008678,0.00007336,-0.00002
 777,-0.00000912,0.00000537,0.00011872,0.00002272,-0.00010614,0.0000523
 9,0.00005432,-0.00009352,0.00000212,0.00000234,-0.00000030,-0.00025485
 ,0.00048798,0.00067143,0.00002360,-0.00005294,-0.00010651,0.00000447,-
 0.00002900,0.00004742,-0.00000538,0.00003948,0.00000218,0.00016803,0.0
 0025145,0.00031983,0.00029837,-0.01465652,-0.00420195,0.00229622,0.000
 83672,0.00138376,0.02464965,-0.27432013,-0.09199291,-0.00079931,0.0018
 4622,0.00222953,-0.02725214,0.30167687,-0.00012472,0.00000502,0.000495
 56,-0.00000718,0.00002969,-0.00017199,0.00000280,0.00001289,-0.0001608
 6,0.00061397,-0.00037436,0.00047463,0.00035883,0.00076646,-0.00083817,
 -0.00037972,-0.00004263,-0.00007243,-0.00001190,-0.00021152,0.00003918
 ,-0.00007430,0.00006642,0.00004096,-0.00055550,-0.00093463,-0.00026034
 ,-0.00003385,0.00001681,-0.00010264,0.00001783,0.00002017,0.00000023,0
 .00105534,0.00016945,-0.00029523,0.00005031,0.00030609,-0.00006381,-0.
 00001024,-0.00000174,0.00004466,0.00044658,-0.00088258,-0.00001412,-0.
 00002080,0.00002316,0.00008343,-0.00000311,0.00000582,-0.00005824,0.00
 002133,-0.00005776,-0.00002095,0.00012903,-0.00018127,-0.00026776,-0.0
 0181885,0.01676784,0.00528908,-0.00160754,-0.00068668,-0.00311400,0.00
 867651,-0.08891793,-0.07869332,0.00293492,-0.03234074,-0.01101357,-0.0
 0885675,0.09776830,0.08566314,0.00005766,0.00002940,0.00000317,-0.0000
 2095,0.00002063,0.00006882,-0.00001827,-0.00001028,-0.00000011,0.00027
 240,0.00013974,0.00001031,-0.00012015,-0.00009226,0.00001093,0.0000345
 8,-0.00004688,0.00000763,0.00074620,0.00048501,-0.00063540,-0.00003231
 ,-0.00003500,0.00007051,0.00027563,0.00017383,-0.00043941,-0.00003297,
 -0.00000306,-0.00004989,0.00000429,-0.00001304,0.00000130,-0.00018083,
 0.00000487,0.00028579,-0.00007676,-0.00010457,0.00026637,0.00000387,0.
 00000447,-0.00000996,-0.00290028,0.00380092,-0.00383344,0.00000516,0.0
 0002992,0.00006780,-0.00000978,-0.00000418,-0.00004401,0.00001797,-0.0
 0005720,-0.00001781,-0.00113178,-0.00019697,0.00059118,-0.02792407,-0.
 01871942,0.01025162,0.00504111,-0.00001083,0.00129295,-0.22765457,-0.1
 1659750,0.05442771,-0.00068323,-0.00025264,-0.00073147,0.00333312,0.00
 286949,-0.00080299,0.25099396,0.00006532,0.00017726,0.00011172,0.00007
 748,0.00000536,0.00015045,-0.00007079,-0.00004549,-0.00002704,0.000401
 72,-0.00050533,0.00048662,-0.00058616,0.00013721,-0.00030238,-0.000308
 89,0.00001004,-0.00006786,0.00002533,-0.00019347,-0.00000184,-0.000035
 70,0.00002594,-0.00000346,-0.00007925,-0.00010356,-0.00016886,-0.00005
 342,0.00003745,-0.00008532,0.00001260,-0.00001400,0.00000240,0.0000110
 4,0.00000307,0.00005215,-0.00001127,-0.00000284,0.00009187,0.00000593,
 0.00000671,-0.00000679,0.00216435,-0.00136434,0.00207387,-0.00000028,0
 .00007676,0.00014082,-0.00001932,-0.00000868,-0.00009375,0.00003708,-0
 .00011852,-0.00003180,0.00074584,0.00026574,-0.00012358,0.01819985,0.0
 0628718,-0.00269129,-0.00046210,0.00104802,-0.00169748,-0.12317371,-0.
 12599516,0.03728303,0.00014352,-0.00042307,-0.00094337,-0.02567477,-0.
 01504538,0.00867373,0.12858557,0.13573910,0.00011332,0.00006932,-0.000
 06049,0.00001082,0.00001432,0.00010569,-0.00001206,0.00000892,0.000072
 38,-0.00011472,0.00019425,-0.00012708,0.00026061,-0.00027290,0.0000442
 8,0.00012517,0.00005030,0.00004824,-0.00018299,0.00000957,-0.00052579,
 0.00003131,-0.00002338,0.00006505,-0.00075827,-0.00062389,0.00040914,0
 .00001027,-0.00002406,0.00002692,-0.00000230,-0.00000709,-0.00000108,0
 .00070098,0.00002578,-0.00031103,0.00012251,0.00022239,-0.00021989,-0.
 00001550,-0.00001260,0.00005014,-0.00211675,0.00233387,-0.00062363,0.0
 0000389,0.00000625,0.00000460,-0.00000544,0.00000729,0.00000348,-0.000
 00080,0.00000548,0.00000276,-0.00043104,0.00020811,0.00068705,-0.01372
 833,-0.00851753,0.00172736,0.00055005,-0.00063379,0.00089120,0.0595370
 2,0.03875316,-0.06839943,0.02743110,0.01832905,-0.00584234,-0.01073727
 ,-0.00730093,0.00301655,-0.06079160,-0.04282187,0.06895592\\0.00000758
 ,-0.00000055,0.00000656,0.00000342,-0.00000365,-0.00000164,-0.00000153
 ,-0.00000090,-0.00000427,-0.00000219,-0.00001834,-0.00000373,-0.000004
 98,0.00000302,0.00000428,-0.00000416,0.00000596,0.00000332,-0.00000010
 ,0.00002636,-0.00001147,-0.00000036,-0.00000426,-0.00000325,0.00001089
 ,0.00001005,-0.00000106,-0.00000643,0.00001201,0.00000421,-0.00000010,
 -0.00000268,0.00000556,-0.00000808,-0.00000467,-0.00000323,-0.00000588
 ,0.00000332,-0.00000429,-0.00000668,0.00000504,-0.00000224,-0.00000718
 ,-0.00002418,-0.00000253,0.00001154,0.00000086,0.00000970,-0.00000089,
 -0.00000496,-0.00000595,-0.00000048,-0.00000737,0.00000309,0.00000563,
 0.00000700,-0.00000587,-0.00000053,0.00000150,0.00000045,0.00000654,-0
 .00000068,-0.00000259,-0.00000558,-0.00000297,0.00001377,-0.00000009,0
 .,-0.00000197,0.00000290,0.00000034,0.00000191,0.00000677,-0.00000027,
 0.00000124\\\@


 GARLIC THEN HAVE POWER TO SAVE FROM DEATH
 BEAR WITH IT THOUGH IT MAKETH UNSAVORY BREATH,
 AND SCORN NOT GARLIC LIKE SOME THAT THINK
 IT ONLY MAKETH MEN WINK AND DRINK AND STINK.
   --  SIR JOHN HARRINGTON,
       "THE ENGLISHMAN'S DOCTOR", 1609
 Job cpu time:       0 days  0 hours 18 minutes 11.6 seconds.
 Elapsed time:       0 days  0 hours  3 minutes 38.7 seconds.
 File lengths (MBytes):  RWF=    160 Int=      0 D2E=      0 Chk=     10 Scr=      1
 Normal termination of Gaussian 16 at Wed Feb 28 21:49:40 2018.
