 Entering Gaussian System, Link 0=g16
 Input=nickel_phenanthroline_freeze.gjf
 Output=nickel_phenanthroline_freeze.out
 Initial command:
 /n/sw/g16_nehalem/g16/l1.exe "/scratch/dhuang9_nickel_phenanthroline_freeze/Gau-154908.inp" -scrdir="/scratch/dhuang9_nickel_phenanthroline_freeze/"
 Entering Link 1 = /n/sw/g16_nehalem/g16/l1.exe PID=    154909.
  
 Copyright (c) 1988,1990,1992,1993,1995,1998,2003,2009,2016,
            Gaussian, Inc.  All Rights Reserved.
  
 This is part of the Gaussian(R) 16 program.  It is based on
 the Gaussian(R) 09 system (copyright 2009, Gaussian, Inc.),
 the Gaussian(R) 03 system (copyright 2003, Gaussian, Inc.),
 the Gaussian(R) 98 system (copyright 1998, Gaussian, Inc.),
 the Gaussian(R) 94 system (copyright 1995, Gaussian, Inc.),
 the Gaussian 92(TM) system (copyright 1992, Gaussian, Inc.),
 the Gaussian 90(TM) system (copyright 1990, Gaussian, Inc.),
 the Gaussian 88(TM) system (copyright 1988, Gaussian, Inc.),
 the Gaussian 86(TM) system (copyright 1986, Carnegie Mellon
 University), and the Gaussian 82(TM) system (copyright 1983,
 Carnegie Mellon University). Gaussian is a federally registered
 trademark of Gaussian, Inc.
  
 This software contains proprietary and confidential information,
 including trade secrets, belonging to Gaussian, Inc.
  
 This software is provided under written license and may be
 used, copied, transmitted, or stored only in accord with that
 written license.
  
 The following legend is applicable only to US Government
 contracts under FAR:
  
                    RESTRICTED RIGHTS LEGEND
  
 Use, reproduction and disclosure by the US Government is
 subject to restrictions as set forth in subparagraphs (a)
 and (c) of the Commercial Computer Software - Restricted
 Rights clause in FAR 52.227-19.
  
 Gaussian, Inc.
 340 Quinnipiac St., Bldg. 40, Wallingford CT 06492
  
  
 ---------------------------------------------------------------
 Warning -- This program may not be used in any manner that
 competes with the business of Gaussian, Inc. or will provide
 assistance to any competitor of Gaussian, Inc.  The licensee
 of this program is prohibited from giving any competitor of
 Gaussian, Inc. access to this program.  By using this program,
 the user acknowledges that Gaussian, Inc. is engaged in the
 business of creating and licensing software in the field of
 computational chemistry and represents and warrants to the
 licensee that it is not a competitor of Gaussian, Inc. and that
 it will not use this program in any manner prohibited above.
 ---------------------------------------------------------------
  

 Cite this work as:
 Gaussian 16, Revision A.03,
 M. J. Frisch, G. W. Trucks, H. B. Schlegel, G. E. Scuseria, 
 M. A. Robb, J. R. Cheeseman, G. Scalmani, V. Barone, 
 G. A. Petersson, H. Nakatsuji, X. Li, M. Caricato, A. V. Marenich, 
 J. Bloino, B. G. Janesko, R. Gomperts, B. Mennucci, H. P. Hratchian, 
 J. V. Ortiz, A. F. Izmaylov, J. L. Sonnenberg, D. Williams-Young, 
 F. Ding, F. Lipparini, F. Egidi, J. Goings, B. Peng, A. Petrone, 
 T. Henderson, D. Ranasinghe, V. G. Zakrzewski, J. Gao, N. Rega, 
 G. Zheng, W. Liang, M. Hada, M. Ehara, K. Toyota, R. Fukuda, 
 J. Hasegawa, M. Ishida, T. Nakajima, Y. Honda, O. Kitao, H. Nakai, 
 T. Vreven, K. Throssell, J. A. Montgomery, Jr., J. E. Peralta, 
 F. Ogliaro, M. J. Bearpark, J. J. Heyd, E. N. Brothers, K. N. Kudin, 
 V. N. Staroverov, T. A. Keith, R. Kobayashi, J. Normand, 
 K. Raghavachari, A. P. Rendell, J. C. Burant, S. S. Iyengar, 
 J. Tomasi, M. Cossi, J. M. Millam, M. Klene, C. Adamo, R. Cammi, 
 J. W. Ochterski, R. L. Martin, K. Morokuma, O. Farkas, 
 J. B. Foresman, and D. J. Fox, Gaussian, Inc., Wallingford CT, 2016.
 
 ******************************************
 Gaussian 16:  ES64L-G16RevA.03 25-Dec-2016
                28-Feb-2018 
 ******************************************
 %nprocshared=4
 Will use up to    4 processors via shared memory.
 %mem=3GB
 ----------------------------------------------------------------------
 #p b3lyp empiricaldispersion=gd3bj 6-31g scrf=(pcm,solvent=water) opt 
 freq=noraman
 ----------------------------------------------------------------------
 1/18=20,19=15,26=3,38=1/1,3;
 2/9=110,12=2,17=6,18=5,40=1/2;
 3/5=1,6=6,11=2,25=1,30=1,70=2201,71=1,72=1,74=-5,124=41/1,2,3;
 4//1;
 5/5=2,38=5,53=1/2;
 6/7=2,8=2,9=2,10=2,28=1/1;
 7//1,2,3,16;
 1/18=20,19=15,26=3/3(2);
 2/9=110/2;
 99//99;
 2/9=110/2;
 3/5=1,6=6,11=2,25=1,30=1,70=2205,71=1,72=1,74=-5,124=41/1,2,3;
 4/5=5,16=3,69=1/1;
 5/5=2,38=5,53=1/2;
 7//1,2,3,16;
 1/18=20,19=15,26=3/3(-5);
 2/9=110/2;
 6/7=2,8=2,9=2,10=2,19=2,28=1/1;
 99/9=1/99;
 Leave Link    1 at Wed Feb 28 19:15:46 2018, MaxMem=   402653184 cpu:               0.2 elap:               0.1
 (Enter /n/sw/g16_nehalem/g16/l101.exe)
 -------------------------
 Glutamic Acid Nitro-Anion
 -------------------------
 Symbolic Z-matrix:
 Charge =  2 Multiplicity = 3
 C                    -3.5713   -5.95607  -0.51937 
 C                    -2.19141  -5.95607  -0.51937 
 C                    -1.47207  -4.73943  -0.51937 
 C                    -2.16966  -3.50753  -0.5173 
 C                    -4.27011  -4.73596  -0.51838 
 C                    -0.03702  -4.74791  -0.52105 
 C                    -1.42023  -2.27084  -0.51583 
 C                    -0.00538  -2.31912  -0.51764 
 C                     0.66631  -3.58729  -0.52074 
 C                     0.74035  -1.11841  -0.51591 
 H                     1.83938  -1.17506  -0.51732 
 C                     0.10173   0.10478  -0.51223 
 C                    -1.30328   0.15958  -0.5103 
 H                     0.47257  -5.72368  -0.52287 
 H                    -4.13052  -6.90299  -0.52022 
 H                    -1.63239  -6.90401  -0.52007 
 H                    -5.3702   -4.74289  -0.51865 
 H                     1.76713  -3.58777  -0.52236 
 H                     0.68234   1.03874  -0.51076 
 H                    -1.806     1.13811  -0.50732 
 N                    -3.58364  -3.53739  -0.51689 
 N                    -2.04814  -1.00355  -0.51222 
 Ni                   -3.86382  -1.60343  -0.44465 
 
 ITRead=  0  0  0  0  0  0  0  0  0  0  0  0  0  0  0  0  0  0  0  0
 ITRead=  0  0  0
 MicOpt= -1 -1 -1 -1 -1 -1 -1 -1 -1 -1 -1 -1 -1 -1 -1 -1 -1 -1 -1 -1
 MicOpt= -1 -1 -1
 NAtoms=     23 NQM=       23 NQMF=       0 NMMI=      0 NMMIF=      0
                NMic=       0 NMicF=      0.
                    Isotopes and Nuclear Properties:
 (Nuclear quadrupole moments (NQMom) in fm**2, nuclear magnetic moments (NMagM)
  in nuclear magnetons)

  Atom         1           2           3           4           5           6           7           8           9          10
 IAtWgt=          12          12          12          12          12          12          12          12          12          12
 AtmWgt=  12.0000000  12.0000000  12.0000000  12.0000000  12.0000000  12.0000000  12.0000000  12.0000000  12.0000000  12.0000000
 NucSpn=           0           0           0           0           0           0           0           0           0           0
 AtZEff=   0.0000000   0.0000000   0.0000000   0.0000000   0.0000000   0.0000000   0.0000000   0.0000000   0.0000000   0.0000000
 NQMom=    0.0000000   0.0000000   0.0000000   0.0000000   0.0000000   0.0000000   0.0000000   0.0000000   0.0000000   0.0000000
 NMagM=    0.0000000   0.0000000   0.0000000   0.0000000   0.0000000   0.0000000   0.0000000   0.0000000   0.0000000   0.0000000
 AtZNuc=   6.0000000   6.0000000   6.0000000   6.0000000   6.0000000   6.0000000   6.0000000   6.0000000   6.0000000   6.0000000

  Atom        11          12          13          14          15          16          17          18          19          20
 IAtWgt=           1          12          12           1           1           1           1           1           1           1
 AtmWgt=   1.0078250  12.0000000  12.0000000   1.0078250   1.0078250   1.0078250   1.0078250   1.0078250   1.0078250   1.0078250
 NucSpn=           1           0           0           1           1           1           1           1           1           1
 AtZEff=   0.0000000   0.0000000   0.0000000   0.0000000   0.0000000   0.0000000   0.0000000   0.0000000   0.0000000   0.0000000
 NQMom=    0.0000000   0.0000000   0.0000000   0.0000000   0.0000000   0.0000000   0.0000000   0.0000000   0.0000000   0.0000000
 NMagM=    2.7928460   0.0000000   0.0000000   2.7928460   2.7928460   2.7928460   2.7928460   2.7928460   2.7928460   2.7928460
 AtZNuc=   1.0000000   6.0000000   6.0000000   1.0000000   1.0000000   1.0000000   1.0000000   1.0000000   1.0000000   1.0000000

  Atom        21          22          23
 IAtWgt=          14          14          58
 AtmWgt=  14.0030740  14.0030740  57.9353471
 NucSpn=           2           2           0
 AtZEff=   0.0000000   0.0000000   0.0000000
 NQMom=    2.0440000   2.0440000   0.0000000
 NMagM=    0.4037610   0.4037610   0.0000000
 AtZNuc=   7.0000000   7.0000000  28.0000000
 Leave Link  101 at Wed Feb 28 19:15:46 2018, MaxMem=   402653184 cpu:               1.0 elap:               0.3
 (Enter /n/sw/g16_nehalem/g16/l103.exe)

 GradGradGradGradGradGradGradGradGradGradGradGradGradGradGradGradGradGrad
 Berny optimization.
 Initialization pass.
                           ----------------------------
                           !    Initial Parameters    !
                           ! (Angstroms and Degrees)  !
 --------------------------                            --------------------------
 ! Name  Definition              Value          Derivative Info.                !
 --------------------------------------------------------------------------------
 ! R1    R(1,2)                  1.3799         estimate D2E/DX2                !
 ! R2    R(1,5)                  1.4061         estimate D2E/DX2                !
 ! R3    R(1,15)                 1.0997         estimate D2E/DX2                !
 ! R4    R(2,3)                  1.4134         estimate D2E/DX2                !
 ! R5    R(2,16)                 1.1005         estimate D2E/DX2                !
 ! R6    R(3,4)                  1.4157         estimate D2E/DX2                !
 ! R7    R(3,6)                  1.4351         estimate D2E/DX2                !
 ! R8    R(4,7)                  1.446          estimate D2E/DX2                !
 ! R9    R(4,21)                 1.4143         estimate D2E/DX2                !
 ! R10   R(5,17)                 1.1001         estimate D2E/DX2                !
 ! R11   R(5,21)                 1.3812         estimate D2E/DX2                !
 ! R12   R(6,9)                  1.3571         estimate D2E/DX2                !
 ! R13   R(6,14)                 1.1008         estimate D2E/DX2                !
 ! R14   R(7,8)                  1.4157         estimate D2E/DX2                !
 ! R15   R(7,22)                 1.4143         estimate D2E/DX2                !
 ! R16   R(8,9)                  1.4351         estimate D2E/DX2                !
 ! R17   R(8,10)                 1.4134         estimate D2E/DX2                !
 ! R18   R(9,18)                 1.1008         estimate D2E/DX2                !
 ! R19   R(10,11)                1.1005         estimate D2E/DX2                !
 ! R20   R(10,12)                1.3799         estimate D2E/DX2                !
 ! R21   R(12,13)                1.4061         estimate D2E/DX2                !
 ! R22   R(12,19)                1.0997         estimate D2E/DX2                !
 ! R23   R(13,20)                1.1001         estimate D2E/DX2                !
 ! R24   R(13,22)                1.3812         estimate D2E/DX2                !
 ! R25   R(21,23)                1.9555         estimate D2E/DX2                !
 ! R26   R(22,23)                1.9134         estimate D2E/DX2                !
 ! A1    A(2,1,5)              119.8017         estimate D2E/DX2                !
 ! A2    A(2,1,15)             120.5649         estimate D2E/DX2                !
 ! A3    A(5,1,15)             119.6335         estimate D2E/DX2                !
 ! A4    A(1,2,3)              120.5935         estimate D2E/DX2                !
 ! A5    A(1,2,16)             120.5287         estimate D2E/DX2                !
 ! A6    A(3,2,16)             118.8778         estimate D2E/DX2                !
 ! A7    A(2,3,4)              119.8847         estimate D2E/DX2                !
 ! A8    A(2,3,6)              120.2548         estimate D2E/DX2                !
 ! A9    A(4,3,6)              119.8604         estimate D2E/DX2                !
 ! A10   A(3,4,7)              119.2625         estimate D2E/DX2                !
 ! A11   A(3,4,21)             118.3118         estimate D2E/DX2                !
 ! A12   A(7,4,21)             122.4257         estimate D2E/DX2                !
 ! A13   A(1,5,17)             119.4411         estimate D2E/DX2                !
 ! A14   A(1,5,21)             120.3971         estimate D2E/DX2                !
 ! A15   A(17,5,21)            120.1618         estimate D2E/DX2                !
 ! A16   A(3,6,9)              120.877          estimate D2E/DX2                !
 ! A17   A(3,6,14)             117.9141         estimate D2E/DX2                !
 ! A18   A(9,6,14)             121.2089         estimate D2E/DX2                !
 ! A19   A(4,7,8)              119.2615         estimate D2E/DX2                !
 ! A20   A(4,7,22)             122.4269         estimate D2E/DX2                !
 ! A21   A(8,7,22)             118.3116         estimate D2E/DX2                !
 ! A22   A(7,8,9)              119.8622         estimate D2E/DX2                !
 ! A23   A(7,8,10)             119.8889         estimate D2E/DX2                !
 ! A24   A(9,8,10)             120.2488         estimate D2E/DX2                !
 ! A25   A(6,9,8)              120.8763         estimate D2E/DX2                !
 ! A26   A(6,9,18)             121.1906         estimate D2E/DX2                !
 ! A27   A(8,9,18)             117.933          estimate D2E/DX2                !
 ! A28   A(8,10,11)            118.8921         estimate D2E/DX2                !
 ! A29   A(8,10,12)            120.5879         estimate D2E/DX2                !
 ! A30   A(11,10,12)           120.52           estimate D2E/DX2                !
 ! A31   A(10,12,13)           119.8028         estimate D2E/DX2                !
 ! A32   A(10,12,19)           120.5637         estimate D2E/DX2                !
 ! A33   A(13,12,19)           119.6336         estimate D2E/DX2                !
 ! A34   A(12,13,20)           119.4262         estimate D2E/DX2                !
 ! A35   A(12,13,22)           120.4014         estimate D2E/DX2                !
 ! A36   A(20,13,22)           120.1724         estimate D2E/DX2                !
 ! A37   A(4,21,5)             121.0112         estimate D2E/DX2                !
 ! A38   A(4,21,23)             97.0291         estimate D2E/DX2                !
 ! A39   A(5,21,23)            141.9092         estimate D2E/DX2                !
 ! A40   A(7,22,13)            121.0074         estimate D2E/DX2                !
 ! A41   A(7,22,23)             98.0744         estimate D2E/DX2                !
 ! A42   A(13,22,23)           140.8699         estimate D2E/DX2                !
 ! A43   A(21,23,22)            99.9506         estimate D2E/DX2                !
 ! D1    D(5,1,2,3)             -0.0466         estimate D2E/DX2                !
 ! D2    D(5,1,2,16)           179.9961         estimate D2E/DX2                !
 ! D3    D(15,1,2,3)           179.9483         estimate D2E/DX2                !
 ! D4    D(15,1,2,16)           -0.009          estimate D2E/DX2                !
 ! D5    D(2,1,5,17)           179.9838         estimate D2E/DX2                !
 ! D6    D(2,1,5,21)            -0.0246         estimate D2E/DX2                !
 ! D7    D(15,1,5,17)           -0.0112         estimate D2E/DX2                !
 ! D8    D(15,1,5,21)          179.9804         estimate D2E/DX2                !
 ! D9    D(1,2,3,4)              0.0966         estimate D2E/DX2                !
 ! D10   D(1,2,3,6)           -179.9223         estimate D2E/DX2                !
 ! D11   D(16,2,3,4)          -179.9454         estimate D2E/DX2                !
 ! D12   D(16,2,3,6)             0.0357         estimate D2E/DX2                !
 ! D13   D(2,3,4,7)            179.932          estimate D2E/DX2                !
 ! D14   D(2,3,4,21)            -0.0745         estimate D2E/DX2                !
 ! D15   D(6,3,4,7)             -0.0491         estimate D2E/DX2                !
 ! D16   D(6,3,4,21)           179.9444         estimate D2E/DX2                !
 ! D17   D(2,3,6,9)           -179.9837         estimate D2E/DX2                !
 ! D18   D(2,3,6,14)             0.0328         estimate D2E/DX2                !
 ! D19   D(4,3,6,9)             -0.0026         estimate D2E/DX2                !
 ! D20   D(4,3,6,14)          -179.9861         estimate D2E/DX2                !
 ! D21   D(3,4,7,8)              0.0536         estimate D2E/DX2                !
 ! D22   D(3,4,7,22)          -179.9273         estimate D2E/DX2                !
 ! D23   D(21,4,7,8)          -179.9397         estimate D2E/DX2                !
 ! D24   D(21,4,7,22)            0.0794         estimate D2E/DX2                !
 ! D25   D(3,4,21,5)             0.0043         estimate D2E/DX2                !
 ! D26   D(3,4,21,23)          177.9551         estimate D2E/DX2                !
 ! D27   D(7,4,21,5)           179.9976         estimate D2E/DX2                !
 ! D28   D(7,4,21,23)           -2.0516         estimate D2E/DX2                !
 ! D29   D(1,5,21,4)             0.0457         estimate D2E/DX2                !
 ! D30   D(1,5,21,23)         -176.6563         estimate D2E/DX2                !
 ! D31   D(17,5,21,4)         -179.9627         estimate D2E/DX2                !
 ! D32   D(17,5,21,23)           3.3352         estimate D2E/DX2                !
 ! D33   D(3,6,9,8)              0.0499         estimate D2E/DX2                !
 ! D34   D(3,6,9,18)          -179.9789         estimate D2E/DX2                !
 ! D35   D(14,6,9,8)          -179.9671         estimate D2E/DX2                !
 ! D36   D(14,6,9,18)            0.004          estimate D2E/DX2                !
 ! D37   D(4,7,8,9)             -0.0079         estimate D2E/DX2                !
 ! D38   D(4,7,8,10)          -179.9845         estimate D2E/DX2                !
 ! D39   D(22,7,8,9)           179.9738         estimate D2E/DX2                !
 ! D40   D(22,7,8,10)           -0.0028         estimate D2E/DX2                !
 ! D41   D(4,7,22,13)          179.9713         estimate D2E/DX2                !
 ! D42   D(4,7,22,23)            1.9997         estimate D2E/DX2                !
 ! D43   D(8,7,22,13)           -0.0098         estimate D2E/DX2                !
 ! D44   D(8,7,22,23)         -177.9814         estimate D2E/DX2                !
 ! D45   D(7,8,9,6)             -0.0445         estimate D2E/DX2                !
 ! D46   D(7,8,9,18)           179.9834         estimate D2E/DX2                !
 ! D47   D(10,8,9,6)           179.932          estimate D2E/DX2                !
 ! D48   D(10,8,9,18)           -0.04           estimate D2E/DX2                !
 ! D49   D(7,8,10,11)          179.9979         estimate D2E/DX2                !
 ! D50   D(7,8,10,12)            0.0106         estimate D2E/DX2                !
 ! D51   D(9,8,10,11)            0.0213         estimate D2E/DX2                !
 ! D52   D(9,8,10,12)         -179.9659         estimate D2E/DX2                !
 ! D53   D(8,10,12,13)          -0.0058         estimate D2E/DX2                !
 ! D54   D(8,10,12,19)         179.9929         estimate D2E/DX2                !
 ! D55   D(11,10,12,13)       -179.9929         estimate D2E/DX2                !
 ! D56   D(11,10,12,19)          0.0059         estimate D2E/DX2                !
 ! D57   D(10,12,13,20)        179.9972         estimate D2E/DX2                !
 ! D58   D(10,12,13,22)         -0.0069         estimate D2E/DX2                !
 ! D59   D(19,12,13,20)         -0.0016         estimate D2E/DX2                !
 ! D60   D(19,12,13,22)        179.9943         estimate D2E/DX2                !
 ! D61   D(12,13,22,7)           0.0148         estimate D2E/DX2                !
 ! D62   D(12,13,22,23)        176.8315         estimate D2E/DX2                !
 ! D63   D(20,13,22,7)        -179.9893         estimate D2E/DX2                !
 ! D64   D(20,13,22,23)         -3.1726         estimate D2E/DX2                !
 ! D65   D(4,21,23,22)           2.6726         estimate D2E/DX2                !
 ! D66   D(5,21,23,22)         179.825          estimate D2E/DX2                !
 ! D67   D(7,22,23,21)          -2.646          estimate D2E/DX2                !
 ! D68   D(13,22,23,21)       -179.8906         estimate D2E/DX2                !
 --------------------------------------------------------------------------------
 Trust Radius=3.00D-01 FncErr=1.00D-07 GrdErr=1.00D-06 EigMax=2.50D+02 EigMin=1.00D-04
 Number of steps in this run=    138 maximum allowed number of steps=    138.
 GradGradGradGradGradGradGradGradGradGradGradGradGradGradGradGradGradGrad

 Leave Link  103 at Wed Feb 28 19:15:46 2018, MaxMem=   402653184 cpu:               0.0 elap:               0.0
 (Enter /n/sw/g16_nehalem/g16/l202.exe)
                          Input orientation:                          
 ---------------------------------------------------------------------
 Center     Atomic      Atomic             Coordinates (Angstroms)
 Number     Number       Type             X           Y           Z
 ---------------------------------------------------------------------
      1          6           0       -3.571296   -5.956070   -0.519367
      2          6           0       -2.191405   -5.956070   -0.519367
      3          6           0       -1.472069   -4.739426   -0.519367
      4          6           0       -2.169658   -3.507530   -0.517297
      5          6           0       -4.270105   -4.735963   -0.518375
      6          6           0       -0.037017   -4.747909   -0.521047
      7          6           0       -1.420226   -2.270843   -0.515826
      8          6           0       -0.005379   -2.319118   -0.517643
      9          6           0        0.666311   -3.587294   -0.520735
     10          6           0        0.740350   -1.118407   -0.515906
     11          1           0        1.839385   -1.175063   -0.517324
     12          6           0        0.101732    0.104776   -0.512225
     13          6           0       -1.303276    0.159582   -0.510303
     14          1           0        0.472569   -5.723678   -0.522872
     15          1           0       -4.130517   -6.902985   -0.520221
     16          1           0       -1.632386   -6.904011   -0.520073
     17          1           0       -5.370200   -4.742886   -0.518652
     18          1           0        1.767128   -3.587774   -0.522364
     19          1           0        0.682340    1.038739   -0.510758
     20          1           0       -1.806001    1.138106   -0.507322
     21          7           0       -3.583643   -3.537394   -0.516888
     22          7           0       -2.048141   -1.003545   -0.512220
     23         28           0       -3.863821   -1.603425   -0.444646
 ---------------------------------------------------------------------
                    Distance matrix (angstroms):
                    1          2          3          4          5
     1  C    0.000000
     2  C    1.379891   0.000000
     3  C    2.426309   1.413388   0.000000
     4  C    2.821337   2.448637   1.415699   0.000000
     5  C    1.406057   2.410323   2.798038   2.433295   0.000000
     6  C    3.735075   2.470029   1.435078   2.467126   4.233106
     7  C    4.267085   3.765053   2.469130   1.446045   3.768107
     8  C    5.093445   4.243363   2.830031   2.469094   4.901941
     9  C    4.854731   3.711825   2.429008   2.837093   5.068298
    10  C    6.480223   5.656694   4.243417   3.765111   6.179917
    11  H    7.220353   6.253423   4.865225   4.638192   7.071483
    12  C    7.086963   6.480153   5.093446   4.267082   6.522710
    13  C    6.522668   6.179810   4.901923   3.768073   5.724378
    14  H    4.050539   2.674093   2.179537   3.448580   4.844436
    15  H    1.099717   2.157963   3.427584   3.920981   2.171514
    16  H    2.158232   1.100498   2.170514   3.438714   3.414381
    17  H    2.169763   3.402433   3.898133   3.430681   1.100117
    18  H    5.840172   4.612897   3.437835   3.937607   6.145448
    19  H    8.186626   7.562132   6.166745   5.366796   7.607493
    20  H    7.310523   7.104647   5.887023   4.659858   6.369978
    21  N    2.418709   2.790757   2.429739   1.414300   1.381231
    22  N    5.181463   4.954602   3.780042   2.506937   4.343743
    23  Ni   4.363104   4.663484   3.944688   2.549722   3.159636
                    6          7          8          9         10
     6  C    0.000000
     7  C    2.837102   0.000000
     8  C    2.428999   1.415672   0.000000
     9  C    1.357092   2.467125   1.435077   0.000000
    10  C    3.711820   2.448713   1.413443   2.470002   0.000000
    11  H    4.035607   3.438866   2.170718   2.682345   1.100495
    12  C    4.854676   2.821336   2.426265   3.734997   1.379863
    13  C    5.068234   2.433243   2.797954   4.233020   2.410331
    14  H    1.100821   3.937612   3.437949   2.145152   4.613055
    15  H    4.626132   5.366790   6.166734   5.831241   7.562189
    16  H    2.682159   4.638025   4.865018   4.035421   6.253248
    17  H    5.333186   4.659753   5.886931   6.146126   7.104624
    18  H    2.144960   3.448706   2.179746   1.100818   2.674339
    19  H    5.831198   3.920987   3.427566   4.626072   2.157932
    20  H    6.146110   3.430718   3.898044   5.333096   3.402327
    21  N    3.747522   2.506896   3.779970   4.250249   4.954636
    22  N    4.250289   1.414332   2.429740   3.747543   2.790858
    23  Ni   4.953589   2.534102   3.924936   4.946072   4.630196
                   11         12         13         14         15
    11  H    0.000000
    12  C    2.158113   0.000000
    13  C    3.414329   1.406078   0.000000
    14  H    4.749538   5.840249   6.145448   0.000000
    15  H    8.273381   8.186618   7.607447   4.751755   0.000000
    16  H    6.698809   7.220133   7.071263   2.413303   2.498131
    17  H    8.044096   7.310397   6.369783   5.924519   2.490551
    18  H    2.413798   4.050750   4.844606   2.497593   6.765563
    19  H    2.497942   1.099725   2.171540   6.765681   9.286262
    20  H    4.317371   2.169618   1.100114   7.230228   8.370346
    21  N    5.915221   5.181449   4.343702   4.607899   3.409734
    22  N    3.891311   2.418745   1.381192   5.351051   6.256177
    23  Ni   5.719732   4.318348   3.109485   5.982214   5.306805
                   16         17         18         19         20
    16  H    0.000000
    17  H    4.317605   0.000000
    18  H    4.749119   7.230197   0.000000
    19  H    8.273169   8.370214   4.752002   0.000000
    20  H    8.044001   6.876751   5.924645   2.490327   0.000000
    21  N    3.891211   2.155226   5.351011   6.256168   5.002040
    22  N    5.915100   5.001878   4.608104   3.409758   2.155302
    23  Ni   5.751626   3.482940   5.970868   5.258610   3.428490
                   21         22         23
    21  N    0.000000
    22  N    2.962799   0.000000
    23  Ni   1.955494   1.913404   0.000000
 Stoichiometry    C12H8N2Ni(2+,3)
 Framework group  C1[X(C12H8N2Ni)]
 Deg. of freedom    63
 Full point group                 C1      NOp   1
 Largest Abelian subgroup         C1      NOp   1
 Largest concise Abelian subgroup C1      NOp   1
                         Standard orientation:                         
 ---------------------------------------------------------------------
 Center     Atomic      Atomic             Coordinates (Angstroms)
 Number     Number       Type             X           Y           Z
 ---------------------------------------------------------------------
      1          6           0       -3.553054    0.289653    0.010862
      2          6           0       -2.850442    1.477173   -0.004392
      3          6           0       -1.437054    1.476809   -0.002689
      4          6           0       -0.732007    0.249262    0.012728
      5          6           0       -2.858775   -0.932928    0.027276
      6          6           0       -0.713659    2.716141   -0.016940
      7          6           0        0.713957    0.264574    0.012786
      8          6           0        1.392817    1.506779   -0.001420
      9          6           0        0.643356    2.730523   -0.015817
     10          6           0        2.805933    1.537217   -0.001873
     11          1           0        3.316775    2.511899   -0.013053
     12          6           0        3.533510    0.364834    0.011212
     13          6           0        2.865280   -0.872230    0.025256
     14          1           0       -1.293995    3.651493   -0.028490
     15          1           0       -4.652770    0.290497    0.010384
     16          1           0       -3.381656    2.440883   -0.017387
     17          1           0       -3.424879   -1.876129    0.039659
     18          1           0        1.203455    3.678140   -0.026360
     19          1           0        4.632970    0.388981    0.010738
     20          1           0        3.451483   -1.803096    0.035597
     21          7           0       -1.477681   -0.952400    0.027712
     22          7           0        1.484952   -0.921057    0.026177
     23         28           0        0.044234   -2.179118   -0.026080
 ---------------------------------------------------------------------
 Rotational constants (GHZ):           0.7712863           0.5515591           0.3216258
 Leave Link  202 at Wed Feb 28 19:15:47 2018, MaxMem=   402653184 cpu:               0.1 elap:               0.0
 (Enter /n/sw/g16_nehalem/g16/l301.exe)
 Standard basis: 6-31G (6D, 7F)
 Ernie: Thresh=  0.10000D-02 Tol=  0.10000D-05 Strict=F.
 There are   171 symmetry adapted cartesian basis functions of A   symmetry.
 There are   171 symmetry adapted basis functions of A   symmetry.
   171 basis functions,   434 primitive gaussians,   171 cartesian basis functions
    61 alpha electrons       59 beta electrons
       nuclear repulsion energy      1194.8059024194 Hartrees.
 IExCor=  402 DFT=T Ex+Corr=B3LYP ExCW=0 ScaHFX=  0.200000
 ScaDFX=  0.800000  0.720000  1.000000  0.810000 ScalE2=  1.000000  1.000000
 IRadAn=      5 IRanWt=     -1 IRanGd=            0 ICorTp=0 IEmpDi=141
 NAtoms=   23 NActive=   23 NUniq=   23 SFac= 1.00D+00 NAtFMM=   60 NAOKFM=F Big=F
 Integral buffers will be    131072 words long.
 Raffenetti 2 integral format.
 Two-electron integral symmetry is turned on.
 R6Disp:  Grimme-D3(BJ) Dispersion energy=       -0.0583268940 Hartrees.
 Nuclear repulsion after empirical dispersion term =     1194.7475755254 Hartrees.
 ------------------------------------------------------------------------------
 Polarizable Continuum Model (PCM)
 =================================
 Model                : PCM.
 Atomic radii         : UFF (Universal Force Field).
 Polarization charges : Total charges.
 Charge compensation  : None.
 Solution method      : On-the-fly selection.
 Cavity type          : Scaled VdW (van der Waals Surface) (Alpha=1.100).
 Cavity algorithm     : GePol (No added spheres)
                        Default sphere list used, NSphG=   23.
                        Lebedev-Laikov grids with approx.  5.0 points / Ang**2.
                        Smoothing algorithm: York/Karplus (Gamma=1.0000).
                        Polarization charges: spherical gaussians, with
                                              point-specific exponents (IZeta= 3).
                        Self-potential: point-specific (ISelfS= 7).
                        Self-field    : sphere-specific E.n sum rule (ISelfD= 2).
 1st derivatives      : Analytical E(r).r(x)/FMM algorithm (CHGder, D1EAlg=3).
                        Cavity 1st derivative terms included.
 Solvent              : Water, Eps=  78.355300 Eps(inf)=   1.777849
 ------------------------------------------------------------------------------
 GePol: Number of generator spheres                  =      23
 GePol: Total number of spheres                      =      23
 GePol: Number of exposed spheres                    =      23 (100.00%)
 GePol: Number of points                             =    1865
 GePol: Average weight of points                     =       0.13
 GePol: Minimum weight of points                     =   0.66D-10
 GePol: Maximum weight of points                     =    0.20577
 GePol: Number of points with low weight             =      84
 GePol: Fraction of low-weight points (<1% of avg)   =       4.50%
 GePol: Cavity surface area                          =    244.472 Ang**2
 GePol: Cavity volume                                =    259.823 Ang**3
 Leave Link  301 at Wed Feb 28 19:15:47 2018, MaxMem=   402653184 cpu:               0.4 elap:               0.1
 (Enter /n/sw/g16_nehalem/g16/l302.exe)
 NPDir=0 NMtPBC=     1 NCelOv=     1 NCel=       1 NClECP=     1 NCelD=      1
         NCelK=      1 NCelE2=     1 NClLst=     1 CellRange=     0.0.
 One-electron integrals computed using PRISM.
 One-electron integral symmetry used in STVInt
 NBasis=   171 RedAO= T EigKep=  3.75D-04  NBF=   171
 NBsUse=   171 1.00D-06 EigRej= -1.00D+00 NBFU=   171
 Precomputing XC quadrature grid using
 IXCGrd= 4 IRadAn=           5 IRanWt=          -1 IRanGd=           0 AccXCQ= 0.00D+00.
 Generated NRdTot=       0 NPtTot=           0 NUsed=           0 NTot=          32
 NSgBfM=   170   170   170   170   170 MxSgAt=    23 MxSgA2=    23.
 Leave Link  302 at Wed Feb 28 19:15:47 2018, MaxMem=   402653184 cpu:               1.6 elap:               0.5
 (Enter /n/sw/g16_nehalem/g16/l303.exe)
 DipDrv:  MaxL=1.
 Leave Link  303 at Wed Feb 28 19:15:48 2018, MaxMem=   402653184 cpu:               0.3 elap:               0.1
 (Enter /n/sw/g16_nehalem/g16/l401.exe)
 ExpMin= 4.52D-02 ExpMax= 7.14D+04 ExpMxC= 1.07D+04 IAcc=3 IRadAn=         5 AccDes= 0.00D+00
 Harris functional with IExCor=  402 and IRadAn=       5 diagonalized for initial guess.
 HarFok:  IExCor=  402 AccDes= 0.00D+00 IRadAn=         5 IDoV= 1 UseB2=F ITyADJ=14
 ICtDFT=  3500011 ScaDFX=  1.000000  1.000000  1.000000  1.000000
 FoFCou: FMM=F IPFlag=           0 FMFlag=      100000 FMFlg1=           0
         NFxFlg=           0 DoJE=T BraDBF=F KetDBF=T FulRan=T
         wScrn=  0.000000 ICntrl=       500 IOpCl=  0 I1Cent=   200000004 NGrid=           0
         NMat0=    1 NMatS0=      1 NMatT0=    0 NMatD0=    1 NMtDS0=    0 NMtDT0=    0
 Petite list used in FoFCou.
 Harris En= -2079.19919745237    
 JPrj=0 DoOrth=F DoCkMO=F.
 Initial guess <Sx>= 0.0000 <Sy>= 0.0000 <Sz>= 1.0000 <S**2>= 2.0000 S= 1.0000
 Leave Link  401 at Wed Feb 28 19:15:50 2018, MaxMem=   402653184 cpu:               9.6 elap:               2.5
 (Enter /n/sw/g16_nehalem/g16/l502.exe)
 Keep R1 and R2 ints in memory in canonical form, NReq=220267951.
 FoFCou: FMM=F IPFlag=           0 FMFlag=           0 FMFlg1=           0
         NFxFlg=           0 DoJE=F BraDBF=F KetDBF=F FulRan=T
         wScrn=  0.000000 ICntrl=       600 IOpCl=  0 I1Cent=           0 NGrid=           0
         NMat0=    1 NMatS0=  14706 NMatT0=    0 NMatD0=    1 NMtDS0=    0 NMtDT0=    0
 Symmetry not used in FoFCou.
 Two-electron integral symmetry not used.
 UHF open shell SCF:
 Using DIIS extrapolation, IDIIS=  1040.
 NGot=   402653184 LenX=   186310433 LenY=   186280751
 Requested convergence on RMS density matrix=1.00D-08 within 128 cycles.
 Requested convergence on MAX density matrix=1.00D-06.
 Requested convergence on             energy=1.00D-06.
 No special actions if energy rises.

 Cycle   1  Pass 1  IDiag  1:
 Inv3:  Mode=1 IEnd=    10434675.
 Iteration    1 A*A^-1 deviation from unit magnitude is 5.44D-15 for    459.
 Iteration    1 A*A^-1 deviation from orthogonality  is 2.56D-15 for   1846   1733.
 Iteration    1 A^-1*A deviation from unit magnitude is 5.00D-15 for   1400.
 Iteration    1 A^-1*A deviation from orthogonality  is 2.09D-15 for   1054    678.
 E= -2076.24338336119    
 DIIS: error= 4.04D-01 at cycle   1 NSaved=   1.
 NSaved= 1 IEnMin= 1 EnMin= -2076.24338336119     IErMin= 1 ErrMin= 4.04D-01
 ErrMax= 4.04D-01  0.00D+00 EMaxC= 1.00D-01 BMatC= 1.83D+01 BMatP= 1.83D+01
 IDIUse=3 WtCom= 0.00D+00 WtEn= 1.00D+00
 Coeff-Com:  0.100D+01
 Coeff-En:   0.100D+01
 Coeff:      0.100D+01
 Gap=    -0.596 Goal=   None    Shift=    0.000
 Gap=    -0.361 Goal=   None    Shift=    0.000
 GapD=   -0.596 DampG=0.250 DampE=0.125 DampFc=0.1250 IDamp=-1.
 Damping current iteration by 1.25D-01
 RMSDP=2.98D-02 MaxDP=9.37D-01              OVMax= 9.14D-01

 Cycle   2  Pass 1  IDiag  1:
 E= -2077.40292703461     Delta-E=       -1.159543673420 Rises=F Damp=T
 DIIS: error= 2.42D-01 at cycle   2 NSaved=   2.
 NSaved= 2 IEnMin= 2 EnMin= -2077.40292703461     IErMin= 2 ErrMin= 2.42D-01
 ErrMax= 2.42D-01  0.00D+00 EMaxC= 1.00D-01 BMatC= 6.41D+00 BMatP= 1.83D+01
 IDIUse=3 WtCom= 0.00D+00 WtEn= 1.00D+00
 Coeff-Com: -0.141D+01 0.241D+01
 Coeff-En:   0.000D+00 0.100D+01
 Coeff:      0.000D+00 0.100D+01
 Gap=    -0.033 Goal=   None    Shift=    0.000
 Gap=     0.040 Goal=   None    Shift=    0.000
 RMSDP=1.70D-02 MaxDP=6.22D-01 DE=-1.16D+00 OVMax= 9.96D-01

 Cycle   3  Pass 1  IDiag  1:
 E= -2072.76742143137     Delta-E=        4.635505603242 Rises=F Damp=F
 DIIS: error= 4.89D-01 at cycle   3 NSaved=   3.
 NSaved= 3 IEnMin= 2 EnMin= -2077.40292703461     IErMin= 2 ErrMin= 2.42D-01
 ErrMax= 4.89D-01  0.00D+00 EMaxC= 1.00D-01 BMatC= 3.72D+01 BMatP= 6.41D+00
 IDIUse=2 WtCom= 0.00D+00 WtEn= 1.00D+00
 EnCoef did   100 forward-backward iterations
 Coeff-En:   0.580D+00 0.431D-01 0.376D+00
 Coeff:      0.580D+00 0.431D-01 0.376D+00
 Gap=     0.026 Goal=   None    Shift=    0.000
 Gap=     0.271 Goal=   None    Shift=    0.000
 RMSDP=1.41D-02 MaxDP=4.36D-01 DE= 4.64D+00 OVMax= 9.61D-01

 Cycle   4  Pass 1  IDiag  1:
 E= -2077.97305572980     Delta-E=       -5.205634298428 Rises=F Damp=F
 DIIS: error= 2.13D-01 at cycle   4 NSaved=   4.
 NSaved= 4 IEnMin= 4 EnMin= -2077.97305572980     IErMin= 4 ErrMin= 2.13D-01
 ErrMax= 2.13D-01  0.00D+00 EMaxC= 1.00D-01 BMatC= 6.76D+00 BMatP= 6.41D+00
 IDIUse=3 WtCom= 0.00D+00 WtEn= 1.00D+00
 EnCoef did   100 forward-backward iterations
 Coeff-Com: -0.136D+01 0.230D+01-0.963D-01 0.161D+00
 Coeff-En:   0.371D+00 0.158D-01 0.000D+00 0.614D+00
 Coeff:      0.371D+00 0.158D-01 0.000D+00 0.614D+00
 Gap=     0.142 Goal=   None    Shift=    0.000
 Gap=    -0.030 Goal=   None    Shift=    0.000
 RMSDP=8.58D-03 MaxDP=4.99D-01 DE=-5.21D+00 OVMax= 9.28D-01

 Cycle   5  Pass 1  IDiag  1:
 E= -2079.29417704444     Delta-E=       -1.321121314644 Rises=F Damp=F
 DIIS: error= 7.02D-02 at cycle   5 NSaved=   5.
 NSaved= 5 IEnMin= 5 EnMin= -2079.29417704444     IErMin= 5 ErrMin= 7.02D-02
 ErrMax= 7.02D-02  0.00D+00 EMaxC= 1.00D-01 BMatC= 6.65D-01 BMatP= 6.41D+00
 IDIUse=3 WtCom= 2.98D-01 WtEn= 7.02D-01
 Coeff-Com: -0.673D+00 0.108D+01-0.524D-01 0.176D+00 0.474D+00
 Coeff-En:   0.000D+00 0.000D+00 0.000D+00 0.116D+00 0.884D+00
 Coeff:     -0.201D+00 0.321D+00-0.156D-01 0.134D+00 0.762D+00
 Gap=     0.296 Goal=   None    Shift=    0.000
 Gap=     0.109 Goal=   None    Shift=    0.000
 RMSDP=5.05D-03 MaxDP=1.15D-01 DE=-1.32D+00 OVMax= 1.74D-01

 Cycle   6  Pass 1  IDiag  1:
 E= -2079.30798466765     Delta-E=       -0.013807623203 Rises=F Damp=F
 DIIS: error= 6.58D-02 at cycle   6 NSaved=   6.
 NSaved= 6 IEnMin= 6 EnMin= -2079.30798466765     IErMin= 6 ErrMin= 6.58D-02
 ErrMax= 6.58D-02  0.00D+00 EMaxC= 1.00D-01 BMatC= 6.37D-01 BMatP= 6.65D-01
 IDIUse=3 WtCom= 3.42D-01 WtEn= 6.58D-01
 Coeff-Com: -0.321D+00 0.501D+00-0.270D-01 0.618D-01 0.461D+00 0.324D+00
 Coeff-En:   0.000D+00 0.000D+00 0.000D+00 0.000D+00 0.472D+00 0.528D+00
 Coeff:     -0.110D+00 0.171D+00-0.922D-02 0.211D-01 0.468D+00 0.459D+00
 Gap=     0.155 Goal=   None    Shift=    0.000
 Gap=     0.099 Goal=   None    Shift=    0.000
 RMSDP=2.11D-03 MaxDP=6.86D-02 DE=-1.38D-02 OVMax= 1.29D-01

 Cycle   7  Pass 1  IDiag  1:
 E= -2079.39684953583     Delta-E=       -0.088864868187 Rises=F Damp=F
 DIIS: error= 6.23D-03 at cycle   7 NSaved=   7.
 NSaved= 7 IEnMin= 7 EnMin= -2079.39684953583     IErMin= 7 ErrMin= 6.23D-03
 ErrMax= 6.23D-03  0.00D+00 EMaxC= 1.00D-01 BMatC= 2.20D-02 BMatP= 6.37D-01
 IDIUse=3 WtCom= 9.38D-01 WtEn= 6.23D-02
 Coeff-Com: -0.464D-01 0.680D-01-0.164D-01 0.354D-01 0.255D+00 0.206D+00
 Coeff-Com:  0.498D+00
 Coeff-En:   0.000D+00 0.000D+00 0.000D+00 0.000D+00 0.000D+00 0.000D+00
 Coeff-En:   0.100D+01
 Coeff:     -0.436D-01 0.638D-01-0.154D-01 0.332D-01 0.239D+00 0.193D+00
 Coeff:      0.530D+00
 Gap=     0.158 Goal=   None    Shift=    0.000
 Gap=     0.127 Goal=   None    Shift=    0.000
 RMSDP=8.69D-04 MaxDP=2.23D-02 DE=-8.89D-02 OVMax= 4.91D-02

 Cycle   8  Pass 1  IDiag  1:
 E= -2079.40220541348     Delta-E=       -0.005355877649 Rises=F Damp=F
 DIIS: error= 4.83D-03 at cycle   8 NSaved=   8.
 NSaved= 8 IEnMin= 8 EnMin= -2079.40220541348     IErMin= 8 ErrMin= 4.83D-03
 ErrMax= 4.83D-03  0.00D+00 EMaxC= 1.00D-01 BMatC= 8.01D-03 BMatP= 2.20D-02
 IDIUse=3 WtCom= 9.52D-01 WtEn= 4.83D-02
 Coeff-Com: -0.547D-02 0.112D-01-0.113D-02 0.615D-02-0.318D-01-0.639D-01
 Coeff-Com:  0.370D+00 0.715D+00
 Coeff-En:   0.000D+00 0.000D+00 0.000D+00 0.000D+00 0.000D+00 0.000D+00
 Coeff-En:   0.186D+00 0.814D+00
 Coeff:     -0.520D-02 0.107D-01-0.107D-02 0.586D-02-0.303D-01-0.608D-01
 Coeff:      0.361D+00 0.719D+00
 Gap=     0.158 Goal=   None    Shift=    0.000
 Gap=     0.136 Goal=   None    Shift=    0.000
 RMSDP=5.95D-04 MaxDP=2.65D-02 DE=-5.36D-03 OVMax= 6.34D-02

 Cycle   9  Pass 1  IDiag  1:
 E= -2079.40624427083     Delta-E=       -0.004038857343 Rises=F Damp=F
 DIIS: error= 3.58D-03 at cycle   9 NSaved=   9.
 NSaved= 9 IEnMin= 9 EnMin= -2079.40624427083     IErMin= 9 ErrMin= 3.58D-03
 ErrMax= 3.58D-03  0.00D+00 EMaxC= 1.00D-01 BMatC= 9.04D-04 BMatP= 8.01D-03
 IDIUse=3 WtCom= 9.64D-01 WtEn= 3.58D-02
 Coeff-Com: -0.194D-02 0.356D-02 0.348D-03 0.304D-02-0.215D-01-0.287D-01
 Coeff-Com:  0.116D+00 0.299D+00 0.630D+00
 Coeff-En:   0.000D+00 0.000D+00 0.000D+00 0.000D+00 0.000D+00 0.000D+00
 Coeff-En:   0.000D+00 0.000D+00 0.100D+01
 Coeff:     -0.187D-02 0.344D-02 0.336D-03 0.293D-02-0.208D-01-0.277D-01
 Coeff:      0.112D+00 0.288D+00 0.643D+00
 Gap=     0.157 Goal=   None    Shift=    0.000
 Gap=     0.136 Goal=   None    Shift=    0.000
 RMSDP=2.91D-04 MaxDP=1.60D-02 DE=-4.04D-03 OVMax= 3.51D-02

 Cycle  10  Pass 1  IDiag  1:
 E= -2079.40714586878     Delta-E=       -0.000901597955 Rises=F Damp=F
 DIIS: error= 3.06D-03 at cycle  10 NSaved=  10.
 NSaved=10 IEnMin=10 EnMin= -2079.40714586878     IErMin=10 ErrMin= 3.06D-03
 ErrMax= 3.06D-03  0.00D+00 EMaxC= 1.00D-01 BMatC= 5.04D-04 BMatP= 9.04D-04
 IDIUse=3 WtCom= 9.69D-01 WtEn= 3.06D-02
 Coeff-Com: -0.685D-02 0.987D-02-0.468D-03 0.170D-02 0.144D-01 0.502D-01
 Coeff-Com: -0.235D+00-0.440D+00 0.236D+00 0.137D+01
 Coeff-En:   0.000D+00 0.000D+00 0.000D+00 0.000D+00 0.000D+00 0.000D+00
 Coeff-En:   0.000D+00 0.000D+00 0.000D+00 0.100D+01
 Coeff:     -0.664D-02 0.956D-02-0.454D-03 0.164D-02 0.140D-01 0.487D-01
 Coeff:     -0.228D+00-0.427D+00 0.228D+00 0.136D+01
 Gap=     0.158 Goal=   None    Shift=    0.000
 Gap=     0.134 Goal=   None    Shift=    0.000
 RMSDP=6.35D-04 MaxDP=3.78D-02 DE=-9.02D-04 OVMax= 6.71D-02

 Cycle  11  Pass 1  IDiag  1:
 E= -2079.40846622342     Delta-E=       -0.001320354638 Rises=F Damp=F
 DIIS: error= 1.71D-03 at cycle  11 NSaved=  11.
 NSaved=11 IEnMin=11 EnMin= -2079.40846622342     IErMin=11 ErrMin= 1.71D-03
 ErrMax= 1.71D-03  0.00D+00 EMaxC= 1.00D-01 BMatC= 1.99D-04 BMatP= 5.04D-04
 IDIUse=3 WtCom= 9.83D-01 WtEn= 1.71D-02
 Coeff-Com: -0.926D-02 0.148D-01-0.935D-03-0.171D-03 0.166D-01 0.317D-01
 Coeff-Com: -0.144D+00-0.298D+00-0.121D+00 0.694D+00 0.816D+00
 Coeff-En:   0.000D+00 0.000D+00 0.000D+00 0.000D+00 0.000D+00 0.000D+00
 Coeff-En:   0.000D+00 0.000D+00 0.000D+00 0.000D+00 0.100D+01
 Coeff:     -0.910D-02 0.145D-01-0.919D-03-0.168D-03 0.164D-01 0.312D-01
 Coeff:     -0.142D+00-0.293D+00-0.119D+00 0.682D+00 0.819D+00
 Gap=     0.158 Goal=   None    Shift=    0.000
 Gap=     0.135 Goal=   None    Shift=    0.000
 RMSDP=3.27D-04 MaxDP=2.02D-02 DE=-1.32D-03 OVMax= 3.10D-02

 Cycle  12  Pass 1  IDiag  1:
 E= -2079.40881466205     Delta-E=       -0.000348438634 Rises=F Damp=F
 DIIS: error= 1.60D-03 at cycle  12 NSaved=  12.
 NSaved=12 IEnMin=12 EnMin= -2079.40881466205     IErMin=12 ErrMin= 1.60D-03
 ErrMax= 1.60D-03  0.00D+00 EMaxC= 1.00D-01 BMatC= 3.56D-04 BMatP= 1.99D-04
 IDIUse=3 WtCom= 9.83D-01 WtEn= 1.71D-02
 Coeff-Com: -0.681D-02 0.107D-01-0.543D-03-0.976D-03 0.143D-01 0.202D-02
 Coeff-Com: -0.421D-01-0.783D-01-0.903D-01 0.763D-01 0.441D+00 0.674D+00
 Coeff-En:   0.000D+00 0.000D+00 0.000D+00 0.000D+00 0.000D+00 0.000D+00
 Coeff-En:   0.000D+00 0.000D+00 0.000D+00 0.000D+00 0.000D+00 0.100D+01
 Coeff:     -0.669D-02 0.105D-01-0.534D-03-0.959D-03 0.141D-01 0.199D-02
 Coeff:     -0.414D-01-0.770D-01-0.887D-01 0.750D-01 0.434D+00 0.680D+00
 Gap=     0.158 Goal=   None    Shift=    0.000
 Gap=     0.135 Goal=   None    Shift=    0.000
 RMSDP=1.53D-04 MaxDP=9.37D-03 DE=-3.48D-04 OVMax= 1.47D-02

 Cycle  13  Pass 1  IDiag  1:
 E= -2079.40896081368     Delta-E=       -0.000146151624 Rises=F Damp=F
 DIIS: error= 1.21D-03 at cycle  13 NSaved=  13.
 NSaved=13 IEnMin=13 EnMin= -2079.40896081368     IErMin=13 ErrMin= 1.21D-03
 ErrMax= 1.21D-03  0.00D+00 EMaxC= 1.00D-01 BMatC= 1.85D-04 BMatP= 1.99D-04
 IDIUse=3 WtCom= 9.88D-01 WtEn= 1.21D-02
 Coeff-Com: -0.155D-02 0.187D-02-0.325D-04-0.554D-03 0.770D-02-0.508D-02
 Coeff-Com: -0.273D-01-0.227D-01 0.113D+00 0.242D-01-0.386D+00-0.235D-01
 Coeff-Com:  0.132D+01
 Coeff-En:   0.000D+00 0.000D+00 0.000D+00 0.000D+00 0.000D+00 0.000D+00
 Coeff-En:   0.000D+00 0.000D+00 0.000D+00 0.000D+00 0.000D+00 0.000D+00
 Coeff-En:   0.100D+01
 Coeff:     -0.153D-02 0.184D-02-0.321D-04-0.547D-03 0.761D-02-0.502D-02
 Coeff:     -0.269D-01-0.224D-01 0.111D+00 0.239D-01-0.381D+00-0.232D-01
 Coeff:      0.132D+01
 Gap=     0.158 Goal=   None    Shift=    0.000
 Gap=     0.137 Goal=   None    Shift=    0.000
 RMSDP=1.65D-04 MaxDP=1.01D-02 DE=-1.46D-04 OVMax= 1.65D-02

 Cycle  14  Pass 1  IDiag  1:
 E= -2079.40908776021     Delta-E=       -0.000126946529 Rises=F Damp=F
 DIIS: error= 5.29D-04 at cycle  14 NSaved=  14.
 NSaved=14 IEnMin=14 EnMin= -2079.40908776021     IErMin=14 ErrMin= 5.29D-04
 ErrMax= 5.29D-04  0.00D+00 EMaxC= 1.00D-01 BMatC= 2.51D-05 BMatP= 1.85D-04
 IDIUse=3 WtCom= 9.95D-01 WtEn= 5.29D-03
 Coeff-Com:  0.206D-03-0.476D-03 0.514D-04 0.691D-04-0.495D-03-0.127D-02
 Coeff-Com: -0.144D-01-0.821D-02 0.113D+00 0.357D-01-0.433D+00-0.367D+00
 Coeff-Com:  0.785D+00 0.890D+00
 Coeff-En:   0.000D+00 0.000D+00 0.000D+00 0.000D+00 0.000D+00 0.000D+00
 Coeff-En:   0.000D+00 0.000D+00 0.000D+00 0.000D+00 0.000D+00 0.000D+00
 Coeff-En:   0.000D+00 0.100D+01
 Coeff:      0.205D-03-0.474D-03 0.511D-04 0.687D-04-0.492D-03-0.127D-02
 Coeff:     -0.143D-01-0.817D-02 0.113D+00 0.355D-01-0.430D+00-0.365D+00
 Coeff:      0.781D+00 0.890D+00
 Gap=     0.158 Goal=   None    Shift=    0.000
 Gap=     0.137 Goal=   None    Shift=    0.000
 RMSDP=1.38D-04 MaxDP=8.62D-03 DE=-1.27D-04 OVMax= 1.42D-02

 Cycle  15  Pass 1  IDiag  1:
 E= -2079.40916662926     Delta-E=       -0.000078869053 Rises=F Damp=F
 DIIS: error= 5.27D-04 at cycle  15 NSaved=  15.
 NSaved=15 IEnMin=15 EnMin= -2079.40916662926     IErMin=15 ErrMin= 5.27D-04
 ErrMax= 5.27D-04  0.00D+00 EMaxC= 1.00D-01 BMatC= 1.13D-05 BMatP= 2.51D-05
 IDIUse=3 WtCom= 9.95D-01 WtEn= 5.27D-03
 Coeff-Com:  0.264D-03-0.343D-03 0.219D-04 0.115D-03-0.157D-02-0.253D-04
 Coeff-Com: -0.219D-03 0.340D-02 0.325D-01 0.223D-02-0.140D+00-0.161D+00
 Coeff-Com:  0.182D+00 0.443D+00 0.640D+00
 Coeff-En:   0.000D+00 0.000D+00 0.000D+00 0.000D+00 0.000D+00 0.000D+00
 Coeff-En:   0.000D+00 0.000D+00 0.000D+00 0.000D+00 0.000D+00 0.000D+00
 Coeff-En:   0.000D+00 0.000D+00 0.100D+01
 Coeff:      0.263D-03-0.341D-03 0.218D-04 0.115D-03-0.156D-02-0.251D-04
 Coeff:     -0.218D-03 0.338D-02 0.323D-01 0.222D-02-0.139D+00-0.160D+00
 Coeff:      0.181D+00 0.440D+00 0.642D+00
 Gap=     0.158 Goal=   None    Shift=    0.000
 Gap=     0.138 Goal=   None    Shift=    0.000
 RMSDP=4.72D-05 MaxDP=2.83D-03 DE=-7.89D-05 OVMax= 4.34D-03

 Cycle  16  Pass 1  IDiag  1:
 E= -2079.40919761722     Delta-E=       -0.000030987959 Rises=F Damp=F
 DIIS: error= 5.30D-04 at cycle  16 NSaved=  16.
 NSaved=16 IEnMin=16 EnMin= -2079.40919761722     IErMin=15 ErrMin= 5.27D-04
 ErrMax= 5.30D-04  0.00D+00 EMaxC= 1.00D-01 BMatC= 9.23D-06 BMatP= 1.13D-05
 IDIUse=3 WtCom= 9.95D-01 WtEn= 5.27D-03
 Coeff-Com:  0.310D-03-0.390D-03 0.220D-05 0.118D-03-0.101D-02-0.101D-03
 Coeff-Com:  0.927D-02 0.116D-01-0.281D-01-0.265D-01 0.955D-01 0.695D-01
 Coeff-Com: -0.214D+00-0.137D+00 0.348D+00 0.873D+00
 Coeff-En:   0.000D+00 0.000D+00 0.000D+00 0.000D+00 0.000D+00 0.000D+00
 Coeff-En:   0.000D+00 0.000D+00 0.000D+00 0.000D+00 0.000D+00 0.000D+00
 Coeff-En:   0.000D+00 0.000D+00 0.000D+00 0.100D+01
 Coeff:      0.309D-03-0.387D-03 0.219D-05 0.117D-03-0.100D-02-0.101D-03
 Coeff:      0.922D-02 0.115D-01-0.280D-01-0.263D-01 0.950D-01 0.691D-01
 Coeff:     -0.213D+00-0.136D+00 0.346D+00 0.874D+00
 Gap=     0.158 Goal=   None    Shift=    0.000
 Gap=     0.137 Goal=   None    Shift=    0.000
 RMSDP=6.14D-05 MaxDP=3.84D-03 DE=-3.10D-05 OVMax= 5.78D-03

 Cycle  17  Pass 1  IDiag  1:
 E= -2079.40923880276     Delta-E=       -0.000041185541 Rises=F Damp=F
 DIIS: error= 5.27D-04 at cycle  17 NSaved=  17.
 NSaved=17 IEnMin=17 EnMin= -2079.40923880276     IErMin=17 ErrMin= 5.27D-04
 ErrMax= 5.27D-04  0.00D+00 EMaxC= 1.00D-01 BMatC= 8.14D-06 BMatP= 9.23D-06
 IDIUse=3 WtCom= 9.95D-01 WtEn= 5.27D-03
 Coeff-Com: -0.182D-03 0.192D-03-0.264D-04 0.984D-04 0.170D-02-0.113D-02
 Coeff-Com:  0.128D-01 0.124D-01-0.839D-01-0.455D-01 0.349D+00 0.399D+00
 Coeff-Com: -0.546D+00-0.107D+01-0.102D+01 0.935D+00 0.205D+01
 Coeff-En:   0.000D+00 0.000D+00 0.000D+00 0.000D+00 0.000D+00 0.000D+00
 Coeff-En:   0.000D+00 0.000D+00 0.000D+00 0.000D+00 0.000D+00 0.000D+00
 Coeff-En:   0.000D+00 0.000D+00 0.000D+00 0.000D+00 0.100D+01
 Coeff:     -0.181D-03 0.191D-03-0.263D-04 0.979D-04 0.169D-02-0.113D-02
 Coeff:      0.127D-01 0.123D-01-0.834D-01-0.453D-01 0.347D+00 0.397D+00
 Coeff:     -0.543D+00-0.107D+01-0.101D+01 0.930D+00 0.205D+01
 Gap=     0.158 Goal=   None    Shift=    0.000
 Gap=     0.137 Goal=   None    Shift=    0.000
 RMSDP=2.26D-04 MaxDP=1.39D-02 DE=-4.12D-05 OVMax= 2.16D-02

 Cycle  18  Pass 1  IDiag  1:
 E= -2079.40937704410     Delta-E=       -0.000138241337 Rises=F Damp=F
 DIIS: error= 5.09D-04 at cycle  18 NSaved=  18.
 NSaved=18 IEnMin=18 EnMin= -2079.40937704410     IErMin=18 ErrMin= 5.09D-04
 ErrMax= 5.09D-04  0.00D+00 EMaxC= 1.00D-01 BMatC= 6.33D-06 BMatP= 8.14D-06
 IDIUse=3 WtCom= 9.95D-01 WtEn= 5.09D-03
 Coeff-Com: -0.709D-03 0.113D-02-0.563D-04-0.893D-04 0.107D-02 0.112D-02
 Coeff-Com: -0.849D-02-0.142D-01 0.127D-01 0.329D-01-0.225D-01-0.212D-01
 Coeff-Com:  0.486D-01-0.417D-02-0.208D+00-0.415D+00 0.522D-01 0.154D+01
 Coeff-En:   0.000D+00 0.000D+00 0.000D+00 0.000D+00 0.000D+00 0.000D+00
 Coeff-En:   0.000D+00 0.000D+00 0.000D+00 0.000D+00 0.000D+00 0.000D+00
 Coeff-En:   0.000D+00 0.000D+00 0.000D+00 0.000D+00 0.000D+00 0.100D+01
 Coeff:     -0.705D-03 0.112D-02-0.560D-04-0.889D-04 0.106D-02 0.111D-02
 Coeff:     -0.845D-02-0.141D-01 0.126D-01 0.327D-01-0.224D-01-0.211D-01
 Coeff:      0.484D-01-0.415D-02-0.207D+00-0.413D+00 0.519D-01 0.154D+01
 Gap=     0.158 Goal=   None    Shift=    0.000
 Gap=     0.138 Goal=   None    Shift=    0.000
 RMSDP=1.96D-04 MaxDP=1.16D-02 DE=-1.38D-04 OVMax= 1.98D-02

 Cycle  19  Pass 1  IDiag  1:
 E= -2079.40948213421     Delta-E=       -0.000105090116 Rises=F Damp=F
 DIIS: error= 4.67D-04 at cycle  19 NSaved=  19.
 NSaved=19 IEnMin=19 EnMin= -2079.40948213421     IErMin=19 ErrMin= 4.67D-04
 ErrMax= 4.67D-04  0.00D+00 EMaxC= 1.00D-01 BMatC= 7.20D-06 BMatP= 6.33D-06
 IDIUse=3 WtCom= 9.95D-01 WtEn= 5.09D-03
 Coeff-Com: -0.899D-03 0.139D-02-0.111D-03 0.172D-04 0.182D-02 0.362D-02
 Coeff-Com: -0.217D-01-0.330D-01 0.380D-01 0.852D-01-0.123D+00-0.211D+00
 Coeff-Com:  0.139D+00 0.599D+00 0.824D+00-0.563D+00-0.161D+01 0.552D-01
 Coeff-Com:  0.182D+01
 Coeff-En:   0.000D+00 0.000D+00 0.000D+00 0.000D+00 0.000D+00 0.000D+00
 Coeff-En:   0.000D+00 0.000D+00 0.000D+00 0.000D+00 0.000D+00 0.000D+00
 Coeff-En:   0.000D+00 0.000D+00 0.000D+00 0.000D+00 0.000D+00 0.000D+00
 Coeff-En:   0.100D+01
 Coeff:     -0.894D-03 0.139D-02-0.111D-03 0.171D-04 0.181D-02 0.360D-02
 Coeff:     -0.216D-01-0.328D-01 0.378D-01 0.847D-01-0.123D+00-0.210D+00
 Coeff:      0.139D+00 0.596D+00 0.820D+00-0.560D+00-0.161D+01 0.549D-01
 Coeff:      0.182D+01
 Gap=     0.158 Goal=   None    Shift=    0.000
 Gap=     0.138 Goal=   None    Shift=    0.000
 RMSDP=2.66D-04 MaxDP=1.72D-02 DE=-1.05D-04 OVMax= 2.89D-02

 Cycle  20  Pass 1  IDiag  1:
 E= -2079.40960499126     Delta-E=       -0.000122857043 Rises=F Damp=F
 DIIS: error= 3.86D-04 at cycle  20 NSaved=  20.
 NSaved=20 IEnMin=20 EnMin= -2079.40960499126     IErMin=20 ErrMin= 3.86D-04
 ErrMax= 3.86D-04  0.00D+00 EMaxC= 1.00D-01 BMatC= 6.47D-06 BMatP= 6.33D-06
 IDIUse=3 WtCom= 9.96D-01 WtEn= 3.86D-03
 Coeff-Com: -0.144D-03 0.154D-03-0.391D-04 0.206D-04 0.871D-03 0.278D-02
 Coeff-Com: -0.718D-02-0.115D-01-0.804D-02 0.492D-01 0.500D-01-0.942D-01
 Coeff-Com: -0.286D+00 0.386D+00 0.146D+01 0.644D+00-0.181D+01-0.370D+01
 Coeff-Com:  0.253D+01 0.179D+01
 Coeff-En:   0.000D+00 0.000D+00 0.000D+00 0.000D+00 0.000D+00 0.000D+00
 Coeff-En:   0.000D+00 0.000D+00 0.000D+00 0.000D+00 0.000D+00 0.000D+00
 Coeff-En:   0.000D+00 0.000D+00 0.000D+00 0.000D+00 0.000D+00 0.000D+00
 Coeff-En:   0.000D+00 0.100D+01
 Coeff:     -0.144D-03 0.153D-03-0.389D-04 0.205D-04 0.867D-03 0.277D-02
 Coeff:     -0.715D-02-0.114D-01-0.801D-02 0.490D-01 0.498D-01-0.938D-01
 Coeff:     -0.284D+00 0.384D+00 0.146D+01 0.641D+00-0.180D+01-0.368D+01
 Coeff:      0.252D+01 0.178D+01
 Gap=     0.158 Goal=   None    Shift=    0.000
 Gap=     0.139 Goal=   None    Shift=    0.000
 RMSDP=5.88D-04 MaxDP=4.26D-02 DE=-1.23D-04 OVMax= 5.99D-02

 Cycle  21  Pass 1  IDiag  1:
 E= -2079.40978683188     Delta-E=       -0.000181840622 Rises=F Damp=F
 DIIS: error= 2.29D-04 at cycle  21 NSaved=  20.
 NSaved=20 IEnMin=20 EnMin= -2079.40978683188     IErMin=20 ErrMin= 2.29D-04
 ErrMax= 2.29D-04  0.00D+00 EMaxC= 1.00D-01 BMatC= 3.49D-06 BMatP= 6.33D-06
 IDIUse=3 WtCom= 9.98D-01 WtEn= 2.29D-03
 Coeff-Com: -0.183D-04-0.585D-04-0.580D-04 0.797D-03 0.287D-02-0.826D-02
 Coeff-Com: -0.130D-01-0.736D-02 0.535D-01 0.518D-01-0.998D-01-0.305D+00
 Coeff-Com:  0.409D+00 0.156D+01 0.694D+00-0.192D+01-0.399D+01 0.273D+01
 Coeff-Com:  0.191D+01-0.740D-01
 Coeff-En:   0.000D+00 0.000D+00 0.000D+00 0.000D+00 0.000D+00 0.000D+00
 Coeff-En:   0.000D+00 0.000D+00 0.000D+00 0.000D+00 0.000D+00 0.000D+00
 Coeff-En:   0.000D+00 0.000D+00 0.000D+00 0.000D+00 0.000D+00 0.000D+00
 Coeff-En:   0.000D+00 0.100D+01
 Coeff:     -0.183D-04-0.584D-04-0.579D-04 0.795D-03 0.286D-02-0.824D-02
 Coeff:     -0.129D-01-0.734D-02 0.534D-01 0.517D-01-0.996D-01-0.304D+00
 Coeff:      0.408D+00 0.156D+01 0.692D+00-0.192D+01-0.398D+01 0.273D+01
 Coeff:      0.191D+01-0.716D-01
 Gap=     0.158 Goal=   None    Shift=    0.000
 Gap=     0.142 Goal=   None    Shift=    0.000
 RMSDP=3.03D-06 MaxDP=1.71D-04 DE=-1.82D-04 OVMax= 3.47D-04

 Cycle  22  Pass 1  IDiag  1:
 E= -2079.40978672323     Delta-E=        0.000000108645 Rises=F Damp=F
 DIIS: error= 2.36D-04 at cycle  22 NSaved=  20.
 NSaved=20 IEnMin=19 EnMin= -2079.40978683188     IErMin=19 ErrMin= 2.29D-04
 ErrMax= 2.36D-04  0.00D+00 EMaxC= 1.00D-01 BMatC= 4.00D-06 BMatP= 3.49D-06
 IDIUse=3 WtCom= 9.98D-01 WtEn= 2.29D-03
 Large coefficients: NSaved= 20 BigCof=   20.00 CofMax=   10.00 Det=-3.29D-09
 Inversion failed.  Reducing to 19 matrices.
 Large coefficients: NSaved= 19 BigCof=   19.95 CofMax=   10.00 Det=-3.35D-09
 Inversion failed.  Reducing to 18 matrices.
 Large coefficients: NSaved= 18 BigCof=   19.91 CofMax=   10.00 Det=-3.37D-09
 Inversion failed.  Reducing to 17 matrices.
 Large coefficients: NSaved= 17 BigCof=   19.86 CofMax=   10.00 Det=-3.40D-09
 Inversion failed.  Reducing to 16 matrices.
 Large coefficients: NSaved= 16 BigCof=   19.11 CofMax=   10.00 Det=-3.89D-09
 Inversion failed.  Reducing to 15 matrices.
 Large coefficients: NSaved= 15 BigCof=   18.96 CofMax=   10.00 Det=-3.97D-09
 Inversion failed.  Reducing to 14 matrices.
 Large coefficients: NSaved= 14 BigCof=   17.48 CofMax=   10.00 Det=-4.80D-09
 Inversion failed.  Reducing to 13 matrices.
 Large coefficients: NSaved= 13 BigCof=   17.72 CofMax=   10.00 Det=-4.82D-09
 Inversion failed.  Reducing to 12 matrices.
 Large coefficients: NSaved= 12 BigCof=   17.94 CofMax=   10.00 Det=-4.93D-09
 Inversion failed.  Reducing to 11 matrices.
 Large coefficients: NSaved= 11 BigCof=   18.06 CofMax=   10.00 Det=-4.93D-09
 Inversion failed.  Reducing to 10 matrices.
 Large coefficients: NSaved= 10 BigCof=   18.19 CofMax=   10.00 Det=-5.50D-09
 Inversion failed.  Reducing to  9 matrices.
 Large coefficients: NSaved=  9 BigCof=   19.07 CofMax=   10.00 Det=-5.79D-09
 Inversion failed.  Reducing to  8 matrices.
 Large coefficients: NSaved=  8 BigCof=   18.68 CofMax=   10.00 Det=-5.84D-09
 Inversion failed.  Reducing to  7 matrices.
 Large coefficients: NSaved=  7 BigCof=   18.71 CofMax=   10.00 Det=-5.89D-09
 Inversion failed.  Reducing to  6 matrices.
 Large coefficients: NSaved=  6 BigCof=   18.70 CofMax=   10.00 Det=-5.99D-09
 Inversion failed.  Reducing to  5 matrices.
 Large coefficients: NSaved=  5 BigCof=   18.58 CofMax=   10.00 Det=-6.00D-09
 Inversion failed.  Reducing to  4 matrices.
 Large coefficients: NSaved=  4 BigCof=   13.77 CofMax=   10.00 Det=-7.63D-09
 Inversion failed.  Reducing to  3 matrices.
 Large coefficients: NSaved=  3 BigCof=   11.75 CofMax=   10.00 Det=-8.96D-09
 Inversion failed.  Reducing to  2 matrices.
 Coeff-Com:  0.693D+01-0.593D+01
 Coeff-En:   0.000D+00 0.100D+01
 Coeff:      0.692D+01-0.592D+01
 Gap=     0.158 Goal=   None    Shift=    0.000
 Gap=     0.139 Goal=   None    Shift=    0.000
 RMSDP=2.64D-05 MaxDP=1.28D-03 DE= 1.09D-07 OVMax= 2.62D-03

 Cycle  23  Pass 1  IDiag  1:
 E= -2079.40979059448     Delta-E=       -0.000003871249 Rises=F Damp=F
 DIIS: error= 1.88D-04 at cycle  23 NSaved=   3.
 NSaved= 3 IEnMin= 3 EnMin= -2079.40979059448     IErMin= 3 ErrMin= 1.88D-04
 ErrMax= 1.88D-04  0.00D+00 EMaxC= 1.00D-01 BMatC= 1.86D-06 BMatP= 3.49D-06
 IDIUse=3 WtCom= 9.98D-01 WtEn= 1.88D-03
 Coeff-Com:  0.489D+01-0.451D+01 0.622D+00
 Coeff-En:   0.000D+00 0.000D+00 0.100D+01
 Coeff:      0.488D+01-0.450D+01 0.623D+00
 Gap=     0.158 Goal=   None    Shift=    0.000
 Gap=     0.139 Goal=   None    Shift=    0.000
 RMSDP=9.84D-06 MaxDP=5.49D-04 DE=-3.87D-06 OVMax= 1.14D-03

 Cycle  24  Pass 1  IDiag  1:
 E= -2079.40979220283     Delta-E=       -0.000001608348 Rises=F Damp=F
 DIIS: error= 1.85D-04 at cycle  24 NSaved=   4.
 NSaved= 4 IEnMin= 4 EnMin= -2079.40979220283     IErMin= 4 ErrMin= 1.85D-04
 ErrMax= 1.85D-04  0.00D+00 EMaxC= 1.00D-01 BMatC= 8.44D-07 BMatP= 1.86D-06
 IDIUse=3 WtCom= 9.98D-01 WtEn= 1.85D-03
 Coeff-Com:  0.176D+01-0.166D+01 0.266D+00 0.634D+00
 Coeff-En:   0.000D+00 0.000D+00 0.000D+00 0.100D+01
 Coeff:      0.175D+01-0.165D+01 0.265D+00 0.634D+00
 Gap=     0.158 Goal=   None    Shift=    0.000
 Gap=     0.139 Goal=   None    Shift=    0.000
 RMSDP=9.86D-06 MaxDP=7.62D-04 DE=-1.61D-06 OVMax= 1.31D-03

 Cycle  25  Pass 1  IDiag  1:
 E= -2079.40979422445     Delta-E=       -0.000002021623 Rises=F Damp=F
 DIIS: error= 1.80D-04 at cycle  25 NSaved=   5.
 NSaved= 5 IEnMin= 5 EnMin= -2079.40979422445     IErMin= 5 ErrMin= 1.80D-04
 ErrMax= 1.80D-04  0.00D+00 EMaxC= 1.00D-01 BMatC= 7.63D-07 BMatP= 8.44D-07
 IDIUse=3 WtCom= 9.98D-01 WtEn= 1.80D-03
 Coeff-Com: -0.581D+01 0.540D+01-0.627D+00 0.398D+00 0.164D+01
 Coeff-En:   0.000D+00 0.000D+00 0.000D+00 0.000D+00 0.100D+01
 Coeff:     -0.580D+01 0.539D+01-0.626D+00 0.397D+00 0.164D+01
 Gap=     0.158 Goal=   None    Shift=    0.000
 Gap=     0.138 Goal=   None    Shift=    0.000
 RMSDP=3.67D-05 MaxDP=2.87D-03 DE=-2.02D-06 OVMax= 4.82D-03

 Cycle  26  Pass 1  IDiag  1:
 E= -2079.40980146618     Delta-E=       -0.000007241730 Rises=F Damp=F
 DIIS: error= 1.64D-04 at cycle  26 NSaved=   6.
 NSaved= 6 IEnMin= 6 EnMin= -2079.40980146618     IErMin= 6 ErrMin= 1.64D-04
 ErrMax= 1.64D-04  0.00D+00 EMaxC= 1.00D-01 BMatC= 6.49D-07 BMatP= 7.63D-07
 IDIUse=3 WtCom= 9.98D-01 WtEn= 1.64D-03
 Coeff-Com: -0.448D+01 0.418D+01-0.429D+00-0.255D+00 0.692D+00 0.129D+01
 Coeff-En:   0.000D+00 0.000D+00 0.000D+00 0.000D+00 0.000D+00 0.100D+01
 Coeff:     -0.447D+01 0.417D+01-0.428D+00-0.254D+00 0.691D+00 0.129D+01
 Gap=     0.158 Goal=   None    Shift=    0.000
 Gap=     0.139 Goal=   None    Shift=    0.000
 RMSDP=4.46D-05 MaxDP=3.48D-03 DE=-7.24D-06 OVMax= 5.76D-03

 Cycle  27  Pass 1  IDiag  1:
 E= -2079.40980953465     Delta-E=       -0.000008068470 Rises=F Damp=F
 DIIS: error= 1.47D-04 at cycle  27 NSaved=   7.
 NSaved= 7 IEnMin= 7 EnMin= -2079.40980953465     IErMin= 7 ErrMin= 1.47D-04
 ErrMax= 1.47D-04  0.00D+00 EMaxC= 1.00D-01 BMatC= 6.19D-07 BMatP= 6.49D-07
 IDIUse=3 WtCom= 9.99D-01 WtEn= 1.47D-03
 Coeff-Com:  0.248D+01-0.229D+01 0.442D+00-0.966D+00-0.179D+01 0.184D+01
 Coeff-Com:  0.128D+01
 Coeff-En:   0.000D+00 0.000D+00 0.000D+00 0.000D+00 0.000D+00 0.000D+00
 Coeff-En:   0.100D+01
 Coeff:      0.247D+01-0.228D+01 0.441D+00-0.965D+00-0.179D+01 0.184D+01
 Coeff:      0.128D+01
 Gap=     0.158 Goal=   None    Shift=    0.000
 Gap=     0.139 Goal=   None    Shift=    0.000
 RMSDP=9.37D-05 MaxDP=7.33D-03 DE=-8.07D-06 OVMax= 1.21D-02

 Cycle  28  Pass 1  IDiag  1:
 E= -2079.40982412989     Delta-E=       -0.000014595240 Rises=F Damp=F
 DIIS: error= 1.13D-04 at cycle  28 NSaved=   8.
 NSaved= 8 IEnMin= 8 EnMin= -2079.40982412989     IErMin= 8 ErrMin= 1.13D-04
 ErrMax= 1.13D-04  0.00D+00 EMaxC= 1.00D-01 BMatC= 3.92D-07 BMatP= 6.19D-07
 IDIUse=3 WtCom= 9.99D-01 WtEn= 1.13D-03
 Coeff-Com:  0.411D+01-0.389D+01 0.410D+00 0.224D+00-0.787D+00-0.894D+00
 Coeff-Com:  0.632D-01 0.176D+01
 Coeff-En:   0.000D+00 0.000D+00 0.000D+00 0.000D+00 0.000D+00 0.000D+00
 Coeff-En:   0.000D+00 0.100D+01
 Coeff:      0.410D+01-0.388D+01 0.409D+00 0.224D+00-0.786D+00-0.893D+00
 Coeff:      0.631D-01 0.176D+01
 Gap=     0.158 Goal=   None    Shift=    0.000
 Gap=     0.139 Goal=   None    Shift=    0.000
 RMSDP=9.37D-05 MaxDP=7.31D-03 DE=-1.46D-05 OVMax= 1.19D-02

 Cycle  29  Pass 1  IDiag  1:
 E= -2079.40983572320     Delta-E=       -0.000011593308 Rises=F Damp=F
 DIIS: error= 8.48D-05 at cycle  29 NSaved=   9.
 NSaved= 9 IEnMin= 9 EnMin= -2079.40983572320     IErMin= 9 ErrMin= 8.48D-05
 ErrMax= 8.48D-05  0.00D+00 EMaxC= 1.00D-01 BMatC= 3.34D-07 BMatP= 3.92D-07
 IDIUse=1 WtCom= 1.00D+00 WtEn= 0.00D+00
 Coeff-Com:  0.157D+01-0.159D+01-0.434D-01 0.135D+01 0.119D+01-0.305D+01
 Coeff-Com: -0.133D+01 0.181D+01 0.108D+01
 Coeff:      0.157D+01-0.159D+01-0.434D-01 0.135D+01 0.119D+01-0.305D+01
 Coeff:     -0.133D+01 0.181D+01 0.108D+01
 Gap=     0.158 Goal=   None    Shift=    0.000
 Gap=     0.139 Goal=   None    Shift=    0.000
 RMSDP=1.09D-04 MaxDP=8.51D-03 DE=-1.16D-05 OVMax= 1.37D-02

 Cycle  30  Pass 1  IDiag  1:
 E= -2079.40984538124     Delta-E=       -0.000009658037 Rises=F Damp=F
 DIIS: error= 5.53D-05 at cycle  30 NSaved=  10.
 NSaved=10 IEnMin=10 EnMin= -2079.40984538124     IErMin=10 ErrMin= 5.53D-05
 ErrMax= 5.53D-05  0.00D+00 EMaxC= 1.00D-01 BMatC= 1.60D-07 BMatP= 3.34D-07
 IDIUse=1 WtCom= 1.00D+00 WtEn= 0.00D+00
 Coeff-Com: -0.225D+01 0.205D+01-0.252D+00 0.378D+00 0.119D+01-0.714D+00
 Coeff-Com: -0.504D+00-0.936D+00 0.576D+00 0.147D+01
 Coeff:     -0.225D+01 0.205D+01-0.252D+00 0.378D+00 0.119D+01-0.714D+00
 Coeff:     -0.504D+00-0.936D+00 0.576D+00 0.147D+01
 Gap=     0.158 Goal=   None    Shift=    0.000
 Gap=     0.139 Goal=   None    Shift=    0.000
 RMSDP=1.12D-04 MaxDP=8.75D-03 DE=-9.66D-06 OVMax= 1.40D-02

 Cycle  31  Pass 1  IDiag  1:
 E= -2079.40985090556     Delta-E=       -0.000005524325 Rises=F Damp=F
 DIIS: error= 3.37D-05 at cycle  31 NSaved=  11.
 NSaved=11 IEnMin=11 EnMin= -2079.40985090556     IErMin=11 ErrMin= 3.37D-05
 ErrMax= 3.37D-05  0.00D+00 EMaxC= 1.00D-01 BMatC= 7.63D-08 BMatP= 1.60D-07
 IDIUse=1 WtCom= 1.00D+00 WtEn= 0.00D+00
 Coeff-Com: -0.165D+01 0.152D+01-0.144D+00-0.116D+00 0.437D+00 0.326D+00
 Coeff-Com:  0.506D-01-0.103D+01 0.659D-01 0.878D+00 0.665D+00
 Coeff:     -0.165D+01 0.152D+01-0.144D+00-0.116D+00 0.437D+00 0.326D+00
 Coeff:      0.506D-01-0.103D+01 0.659D-01 0.878D+00 0.665D+00
 Gap=     0.158 Goal=   None    Shift=    0.000
 Gap=     0.139 Goal=   None    Shift=    0.000
 RMSDP=3.19D-05 MaxDP=2.53D-03 DE=-5.52D-06 OVMax= 4.02D-03

 Cycle  32  Pass 1  IDiag  1:
 E= -2079.40985168750     Delta-E=       -0.000000781937 Rises=F Damp=F
 DIIS: error= 3.25D-05 at cycle  32 NSaved=  12.
 NSaved=12 IEnMin=12 EnMin= -2079.40985168750     IErMin=12 ErrMin= 3.25D-05
 ErrMax= 3.25D-05  0.00D+00 EMaxC= 1.00D-01 BMatC= 3.26D-08 BMatP= 7.63D-08
 IDIUse=1 WtCom= 1.00D+00 WtEn= 0.00D+00
 Coeff-Com:  0.862D+00-0.809D+00 0.849D-01-0.234D+00-0.511D+00 0.483D+00
 Coeff-Com:  0.288D+00 0.241D+00-0.293D+00-0.540D+00 0.113D+00 0.131D+01
 Coeff:      0.862D+00-0.809D+00 0.849D-01-0.234D+00-0.511D+00 0.483D+00
 Coeff:      0.288D+00 0.241D+00-0.293D+00-0.540D+00 0.113D+00 0.131D+01
 Gap=     0.158 Goal=   None    Shift=    0.000
 Gap=     0.139 Goal=   None    Shift=    0.000
 RMSDP=1.92D-05 MaxDP=1.52D-03 DE=-7.82D-07 OVMax= 2.41D-03

 Cycle  33  Pass 1  IDiag  1:
 E= -2079.40985205126     Delta-E=       -0.000000363764 Rises=F Damp=F
 DIIS: error= 2.68D-05 at cycle  33 NSaved=  13.
 NSaved=13 IEnMin=13 EnMin= -2079.40985205126     IErMin=13 ErrMin= 2.68D-05
 ErrMax= 2.68D-05  0.00D+00 EMaxC= 1.00D-01 BMatC= 2.30D-08 BMatP= 3.26D-08
 IDIUse=1 WtCom= 1.00D+00 WtEn= 0.00D+00
 Coeff-Com:  0.120D+01-0.110D+01 0.111D+00-0.442D-01-0.467D+00 0.539D-01
 Coeff-Com:  0.116D+00 0.661D+00-0.190D+00-0.745D+00-0.246D+00 0.829D+00
 Coeff-Com:  0.831D+00
 Coeff:      0.120D+01-0.110D+01 0.111D+00-0.442D-01-0.467D+00 0.539D-01
 Coeff:      0.116D+00 0.661D+00-0.190D+00-0.745D+00-0.246D+00 0.829D+00
 Coeff:      0.831D+00
 Gap=     0.158 Goal=   None    Shift=    0.000
 Gap=     0.139 Goal=   None    Shift=    0.000
 RMSDP=1.06D-05 MaxDP=8.01D-04 DE=-3.64D-07 OVMax= 1.27D-03

 Cycle  34  Pass 1  IDiag  1:
 E= -2079.40985221410     Delta-E=       -0.000000162831 Rises=F Damp=F
 DIIS: error= 2.16D-05 at cycle  34 NSaved=  14.
 NSaved=14 IEnMin=14 EnMin= -2079.40985221410     IErMin=14 ErrMin= 2.16D-05
 ErrMax= 2.16D-05  0.00D+00 EMaxC= 1.00D-01 BMatC= 1.50D-08 BMatP= 2.30D-08
 IDIUse=1 WtCom= 1.00D+00 WtEn= 0.00D+00
 Coeff-Com: -0.170D+00 0.192D+00 0.418D-02 0.220D+00 0.195D+00-0.505D+00
 Coeff-Com: -0.223D+00 0.242D+00 0.193D+00 0.107D-01-0.370D+00-0.951D+00
 Coeff-Com:  0.787D+00 0.138D+01
 Coeff:     -0.170D+00 0.192D+00 0.418D-02 0.220D+00 0.195D+00-0.505D+00
 Coeff:     -0.223D+00 0.242D+00 0.193D+00 0.107D-01-0.370D+00-0.951D+00
 Coeff:      0.787D+00 0.138D+01
 Gap=     0.158 Goal=   None    Shift=    0.000
 Gap=     0.139 Goal=   None    Shift=    0.000
 RMSDP=1.62D-05 MaxDP=1.16D-03 DE=-1.63D-07 OVMax= 1.84D-03

 Cycle  35  Pass 1  IDiag  1:
 E= -2079.40985237773     Delta-E=       -0.000000163638 Rises=F Damp=F
 DIIS: error= 1.04D-05 at cycle  35 NSaved=  15.
 NSaved=15 IEnMin=15 EnMin= -2079.40985237773     IErMin=15 ErrMin= 1.04D-05
 ErrMax= 1.04D-05  0.00D+00 EMaxC= 1.00D-01 BMatC= 4.68D-09 BMatP= 1.50D-08
 IDIUse=1 WtCom= 1.00D+00 WtEn= 0.00D+00
 Coeff-Com: -0.368D+00 0.359D+00-0.221D-01 0.125D+00 0.209D+00-0.276D+00
 Coeff-Com: -0.143D+00-0.185D-01 0.140D+00 0.167D+00-0.131D+00-0.650D+00
 Coeff-Com:  0.145D+00 0.681D+00 0.783D+00
 Coeff:     -0.368D+00 0.359D+00-0.221D-01 0.125D+00 0.209D+00-0.276D+00
 Coeff:     -0.143D+00-0.185D-01 0.140D+00 0.167D+00-0.131D+00-0.650D+00
 Coeff:      0.145D+00 0.681D+00 0.783D+00
 Gap=     0.158 Goal=   None    Shift=    0.000
 Gap=     0.139 Goal=   None    Shift=    0.000
 RMSDP=4.07D-06 MaxDP=2.26D-04 DE=-1.64D-07 OVMax= 4.03D-04

 Cycle  36  Pass 1  IDiag  1:
 E= -2079.40985240164     Delta-E=       -0.000000023906 Rises=F Damp=F
 DIIS: error= 5.97D-06 at cycle  36 NSaved=  16.
 NSaved=16 IEnMin=16 EnMin= -2079.40985240164     IErMin=16 ErrMin= 5.97D-06
 ErrMax= 5.97D-06  0.00D+00 EMaxC= 1.00D-01 BMatC= 2.23D-09 BMatP= 4.68D-09
 IDIUse=1 WtCom= 1.00D+00 WtEn= 0.00D+00
 Coeff-Com: -0.128D+00 0.115D+00-0.131D-01-0.571D-01 0.815D-02 0.123D+00
 Coeff-Com:  0.468D-01-0.141D+00-0.223D-01 0.868D-01 0.105D+00 0.101D+00
 Coeff-Com: -0.320D+00-0.272D+00 0.471D+00 0.897D+00
 Coeff:     -0.128D+00 0.115D+00-0.131D-01-0.571D-01 0.815D-02 0.123D+00
 Coeff:      0.468D-01-0.141D+00-0.223D-01 0.868D-01 0.105D+00 0.101D+00
 Coeff:     -0.320D+00-0.272D+00 0.471D+00 0.897D+00
 Gap=     0.158 Goal=   None    Shift=    0.000
 Gap=     0.139 Goal=   None    Shift=    0.000
 RMSDP=2.08D-06 MaxDP=1.38D-04 DE=-2.39D-08 OVMax= 2.71D-04

 Cycle  37  Pass 1  IDiag  1:
 E= -2079.40985241117     Delta-E=       -0.000000009527 Rises=F Damp=F
 DIIS: error= 2.91D-06 at cycle  37 NSaved=  17.
 NSaved=17 IEnMin=17 EnMin= -2079.40985241117     IErMin=17 ErrMin= 2.91D-06
 ErrMax= 2.91D-06  0.00D+00 EMaxC= 1.00D-01 BMatC= 7.35D-10 BMatP= 2.23D-09
 IDIUse=1 WtCom= 1.00D+00 WtEn= 0.00D+00
 Coeff-Com:  0.391D-01-0.409D-01-0.580D-03-0.553D-01-0.555D-01 0.116D+00
 Coeff-Com:  0.534D-01-0.336D-01-0.436D-01-0.188D-01 0.577D-01 0.198D+00
 Coeff-Com: -0.956D-01-0.238D+00-0.218D+00 0.123D+00 0.121D+01
 Coeff:      0.391D-01-0.409D-01-0.580D-03-0.553D-01-0.555D-01 0.116D+00
 Coeff:      0.534D-01-0.336D-01-0.436D-01-0.188D-01 0.577D-01 0.198D+00
 Coeff:     -0.956D-01-0.238D+00-0.218D+00 0.123D+00 0.121D+01
 Gap=     0.158 Goal=   None    Shift=    0.000
 Gap=     0.139 Goal=   None    Shift=    0.000
 RMSDP=1.30D-06 MaxDP=7.13D-05 DE=-9.53D-09 OVMax= 1.45D-04

 Cycle  38  Pass 1  IDiag  1:
 E= -2079.40985241513     Delta-E=       -0.000000003967 Rises=F Damp=F
 DIIS: error= 2.13D-06 at cycle  38 NSaved=  18.
 NSaved=18 IEnMin=18 EnMin= -2079.40985241513     IErMin=18 ErrMin= 2.13D-06
 ErrMax= 2.13D-06  0.00D+00 EMaxC= 1.00D-01 BMatC= 5.17D-10 BMatP= 7.35D-10
 IDIUse=1 WtCom= 1.00D+00 WtEn= 0.00D+00
 Coeff-Com:  0.502D-01-0.477D-01 0.301D-02-0.696D-02-0.300D-01 0.125D-01
 Coeff-Com:  0.890D-02 0.405D-01-0.141D-01-0.454D-01-0.165D-01 0.618D-01
 Coeff-Com:  0.113D+00-0.140D-02-0.421D+00-0.427D+00 0.891D+00 0.829D+00
 Coeff:      0.502D-01-0.477D-01 0.301D-02-0.696D-02-0.300D-01 0.125D-01
 Coeff:      0.890D-02 0.405D-01-0.141D-01-0.454D-01-0.165D-01 0.618D-01
 Coeff:      0.113D+00-0.140D-02-0.421D+00-0.427D+00 0.891D+00 0.829D+00
 Gap=     0.158 Goal=   None    Shift=    0.000
 Gap=     0.139 Goal=   None    Shift=    0.000
 RMSDP=1.02D-06 MaxDP=4.62D-05 DE=-3.97D-09 OVMax= 9.67D-05

 Cycle  39  Pass 1  IDiag  1:
 E= -2079.40985241707     Delta-E=       -0.000000001933 Rises=F Damp=F
 DIIS: error= 2.16D-06 at cycle  39 NSaved=  19.
 NSaved=19 IEnMin=19 EnMin= -2079.40985241707     IErMin=18 ErrMin= 2.13D-06
 ErrMax= 2.16D-06  0.00D+00 EMaxC= 1.00D-01 BMatC= 1.62D-10 BMatP= 5.17D-10
 IDIUse=1 WtCom= 1.00D+00 WtEn= 0.00D+00
 Coeff-Com:  0.586D-02-0.590D-02 0.982D-03 0.103D-01 0.304D-02-0.212D-01
 Coeff-Com: -0.820D-02 0.192D-01 0.447D-02-0.109D-01-0.183D-01-0.219D-01
 Coeff-Com:  0.760D-01 0.545D-01-0.148D+00-0.239D+00 0.135D+00 0.383D+00
 Coeff-Com:  0.780D+00
 Coeff:      0.586D-02-0.590D-02 0.982D-03 0.103D-01 0.304D-02-0.212D-01
 Coeff:     -0.820D-02 0.192D-01 0.447D-02-0.109D-01-0.183D-01-0.219D-01
 Coeff:      0.760D-01 0.545D-01-0.148D+00-0.239D+00 0.135D+00 0.383D+00
 Coeff:      0.780D+00
 Gap=     0.158 Goal=   None    Shift=    0.000
 Gap=     0.139 Goal=   None    Shift=    0.000
 RMSDP=3.79D-07 MaxDP=2.19D-05 DE=-1.93D-09 OVMax= 3.30D-05

 Cycle  40  Pass 1  IDiag  1:
 E= -2079.40985241767     Delta-E=       -0.000000000599 Rises=F Damp=F
 DIIS: error= 2.11D-06 at cycle  40 NSaved=  20.
 NSaved=20 IEnMin=20 EnMin= -2079.40985241767     IErMin=20 ErrMin= 2.11D-06
 ErrMax= 2.11D-06  0.00D+00 EMaxC= 1.00D-01 BMatC= 9.90D-11 BMatP= 1.62D-10
 IDIUse=1 WtCom= 1.00D+00 WtEn= 0.00D+00
 Coeff-Com: -0.763D-02 0.707D-02-0.716D-03 0.534D-02 0.791D-02-0.917D-02
 Coeff-Com: -0.471D-02-0.286D-02 0.442D-02 0.505D-02-0.332D-02-0.237D-01
 Coeff-Com:  0.160D-02 0.229D-01 0.600D-01 0.222D-01-0.213D+00-0.891D-01
 Coeff-Com:  0.340D+00 0.878D+00
 Coeff:     -0.763D-02 0.707D-02-0.716D-03 0.534D-02 0.791D-02-0.917D-02
 Coeff:     -0.471D-02-0.286D-02 0.442D-02 0.505D-02-0.332D-02-0.237D-01
 Coeff:      0.160D-02 0.229D-01 0.600D-01 0.222D-01-0.213D+00-0.891D-01
 Coeff:      0.340D+00 0.878D+00
 Gap=     0.158 Goal=   None    Shift=    0.000
 Gap=     0.139 Goal=   None    Shift=    0.000
 RMSDP=2.46D-07 MaxDP=1.93D-05 DE=-5.99D-10 OVMax= 2.66D-05

 Cycle  41  Pass 1  IDiag  1:
 E= -2079.40985241812     Delta-E=       -0.000000000455 Rises=F Damp=F
 DIIS: error= 2.02D-06 at cycle  41 NSaved=  20.
 NSaved=20 IEnMin=20 EnMin= -2079.40985241812     IErMin=20 ErrMin= 2.02D-06
 ErrMax= 2.02D-06  0.00D+00 EMaxC= 1.00D-01 BMatC= 8.17D-11 BMatP= 9.90D-11
 IDIUse=1 WtCom= 1.00D+00 WtEn= 0.00D+00
 Coeff-Com:  0.542D-03 0.301D-04-0.625D-03 0.914D-03 0.117D-02-0.122D-03
 Coeff-Com: -0.459D-02 0.885D-03 0.443D-02 0.252D-02-0.533D-02-0.153D-01
 Coeff-Com: -0.198D-02 0.537D-01 0.585D-01-0.106D+00-0.120D+00-0.625D-01
 Coeff-Com:  0.361D+00 0.833D+00
 Coeff:      0.542D-03 0.301D-04-0.625D-03 0.914D-03 0.117D-02-0.122D-03
 Coeff:     -0.459D-02 0.885D-03 0.443D-02 0.252D-02-0.533D-02-0.153D-01
 Coeff:     -0.198D-02 0.537D-01 0.585D-01-0.106D+00-0.120D+00-0.625D-01
 Coeff:      0.361D+00 0.833D+00
 Gap=     0.158 Goal=   None    Shift=    0.000
 Gap=     0.139 Goal=   None    Shift=    0.000
 RMSDP=1.76D-07 MaxDP=1.55D-05 DE=-4.55D-10 OVMax= 2.10D-05

 Cycle  42  Pass 1  IDiag  1:
 E= -2079.40985241849     Delta-E=       -0.000000000373 Rises=F Damp=F
 DIIS: error= 1.94D-06 at cycle  42 NSaved=  20.
 NSaved=20 IEnMin=20 EnMin= -2079.40985241849     IErMin=20 ErrMin= 1.94D-06
 ErrMax= 1.94D-06  0.00D+00 EMaxC= 1.00D-01 BMatC= 7.31D-11 BMatP= 8.17D-11
 IDIUse=1 WtCom= 1.00D+00 WtEn= 0.00D+00
 Coeff-Com:  0.273D-04-0.552D-02-0.748D-02 0.819D-02 0.390D-02 0.673D-02
 Coeff-Com: -0.517D-02-0.594D-02 0.489D-02 0.378D-01-0.207D-03-0.375D-01
 Coeff-Com: -0.114D+00-0.524D-01 0.384D+00 0.179D+00-0.559D+00-0.154D+01
 Coeff-Com: -0.260D-01 0.273D+01
 Coeff:      0.273D-04-0.552D-02-0.748D-02 0.819D-02 0.390D-02 0.673D-02
 Coeff:     -0.517D-02-0.594D-02 0.489D-02 0.378D-01-0.207D-03-0.375D-01
 Coeff:     -0.114D+00-0.524D-01 0.384D+00 0.179D+00-0.559D+00-0.154D+01
 Coeff:     -0.260D-01 0.273D+01
 Gap=     0.158 Goal=   None    Shift=    0.000
 Gap=     0.139 Goal=   None    Shift=    0.000
 RMSDP=6.64D-07 MaxDP=5.70D-05 DE=-3.73D-10 OVMax= 7.76D-05

 Cycle  43  Pass 1  IDiag  1:
 E= -2079.40985241976     Delta-E=       -0.000000001265 Rises=F Damp=F
 DIIS: error= 1.65D-06 at cycle  43 NSaved=  20.
 NSaved=20 IEnMin=20 EnMin= -2079.40985241976     IErMin=20 ErrMin= 1.65D-06
 ErrMax= 1.65D-06  0.00D+00 EMaxC= 1.00D-01 BMatC= 6.05D-11 BMatP= 7.31D-11
 IDIUse=1 WtCom= 1.00D+00 WtEn= 0.00D+00
 Coeff-Com:  0.194D-02-0.338D-03-0.675D-02-0.961D-03 0.128D-01-0.150D-03
 Coeff-Com: -0.100D-01-0.988D-02 0.411D-03 0.282D-01 0.123D-01-0.832D-01
 Coeff-Com: -0.700D-01 0.252D+00 0.161D+00-0.317D+00-0.129D+01-0.843D+00
 Coeff-Com:  0.165D+01 0.151D+01
 Coeff:      0.194D-02-0.338D-03-0.675D-02-0.961D-03 0.128D-01-0.150D-03
 Coeff:     -0.100D-01-0.988D-02 0.411D-03 0.282D-01 0.123D-01-0.832D-01
 Coeff:     -0.700D-01 0.252D+00 0.161D+00-0.317D+00-0.129D+01-0.843D+00
 Coeff:      0.165D+01 0.151D+01
 Gap=     0.158 Goal=   None    Shift=    0.000
 Gap=     0.139 Goal=   None    Shift=    0.000
 RMSDP=9.96D-07 MaxDP=8.73D-05 DE=-1.26D-09 OVMax= 1.18D-04

 Cycle  44  Pass 1  IDiag  1:
 E= -2079.40985242133     Delta-E=       -0.000000001568 Rises=F Damp=F
 DIIS: error= 1.21D-06 at cycle  44 NSaved=  20.
 NSaved=20 IEnMin=20 EnMin= -2079.40985242133     IErMin=20 ErrMin= 1.21D-06
 ErrMax= 1.21D-06  0.00D+00 EMaxC= 1.00D-01 BMatC= 3.87D-11 BMatP= 6.05D-11
 IDIUse=1 WtCom= 1.00D+00 WtEn= 0.00D+00
 Coeff-Com:  0.160D-02 0.212D-02 0.189D-02-0.683D-02 0.145D-02 0.599D-03
 Coeff-Com: -0.605D-02-0.262D-01 0.779D-02 0.320D-01 0.601D-01 0.279D-01
 Coeff-Com: -0.205D+00-0.907D-01 0.272D+00 0.655D+00-0.452D+00-0.166D+01
 Coeff-Com:  0.899D+00 0.149D+01
 Coeff:      0.160D-02 0.212D-02 0.189D-02-0.683D-02 0.145D-02 0.599D-03
 Coeff:     -0.605D-02-0.262D-01 0.779D-02 0.320D-01 0.601D-01 0.279D-01
 Coeff:     -0.205D+00-0.907D-01 0.272D+00 0.655D+00-0.452D+00-0.166D+01
 Coeff:      0.899D+00 0.149D+01
 Gap=     0.158 Goal=   None    Shift=    0.000
 Gap=     0.139 Goal=   None    Shift=    0.000
 RMSDP=1.32D-06 MaxDP=1.13D-04 DE=-1.57D-09 OVMax= 1.54D-04

 Cycle  45  Pass 1  IDiag  1:
 E= -2079.40985242272     Delta-E=       -0.000000001391 Rises=F Damp=F
 DIIS: error= 6.41D-07 at cycle  45 NSaved=  20.
 NSaved=20 IEnMin=20 EnMin= -2079.40985242272     IErMin=20 ErrMin= 6.41D-07
 ErrMax= 6.41D-07  0.00D+00 EMaxC= 1.00D-01 BMatC= 2.09D-11 BMatP= 3.87D-11
 IDIUse=1 WtCom= 1.00D+00 WtEn= 0.00D+00
 Coeff-Com:  0.434D-02-0.434D-03-0.102D-01 0.680D-03 0.906D-02 0.682D-02
 Coeff-Com: -0.216D-02-0.162D-01-0.250D-02 0.456D-01 0.294D-01-0.194D+00
 Coeff-Com: -0.883D-01 0.360D+00 0.115D+01 0.315D+00-0.194D+01-0.723D+00
 Coeff-Com:  0.740D+00 0.132D+01
 Coeff:      0.434D-02-0.434D-03-0.102D-01 0.680D-03 0.906D-02 0.682D-02
 Coeff:     -0.216D-02-0.162D-01-0.250D-02 0.456D-01 0.294D-01-0.194D+00
 Coeff:     -0.883D-01 0.360D+00 0.115D+01 0.315D+00-0.194D+01-0.723D+00
 Coeff:      0.740D+00 0.132D+01
 Gap=     0.158 Goal=   None    Shift=    0.000
 Gap=     0.139 Goal=   None    Shift=    0.000
 RMSDP=1.22D-06 MaxDP=1.03D-04 DE=-1.39D-09 OVMax= 1.41D-04

 Cycle  46  Pass 1  IDiag  1:
 E= -2079.40985242338     Delta-E=       -0.000000000663 Rises=F Damp=F
 DIIS: error= 2.58D-07 at cycle  46 NSaved=  20.
 NSaved=20 IEnMin=20 EnMin= -2079.40985242338     IErMin=20 ErrMin= 2.58D-07
 ErrMax= 2.58D-07  0.00D+00 EMaxC= 1.00D-01 BMatC= 5.07D-12 BMatP= 2.09D-11
 IDIUse=1 WtCom= 1.00D+00 WtEn= 0.00D+00
 Coeff-Com:  0.894D-04-0.518D-03-0.565D-03 0.115D-02 0.359D-02 0.562D-02
 Coeff-Com: -0.146D-01-0.134D-01 0.305D-01 0.408D-01-0.362D-01-0.592D-01
 Coeff-Com: -0.520D-01 0.181D-01 0.237D+00 0.257D+00-0.222D+00-0.460D+00
 Coeff-Com: -0.149D+00 0.141D+01
 Coeff:      0.894D-04-0.518D-03-0.565D-03 0.115D-02 0.359D-02 0.562D-02
 Coeff:     -0.146D-01-0.134D-01 0.305D-01 0.408D-01-0.362D-01-0.592D-01
 Coeff:     -0.520D-01 0.181D-01 0.237D+00 0.257D+00-0.222D+00-0.460D+00
 Coeff:     -0.149D+00 0.141D+01
 Gap=     0.158 Goal=   None    Shift=    0.000
 Gap=     0.139 Goal=   None    Shift=    0.000
 RMSDP=4.06D-07 MaxDP=3.53D-05 DE=-6.63D-10 OVMax= 4.78D-05

 Cycle  47  Pass 1  IDiag  1:
 E= -2079.40985242345     Delta-E=       -0.000000000068 Rises=F Damp=F
 DIIS: error= 1.26D-07 at cycle  47 NSaved=  20.
 NSaved=20 IEnMin=20 EnMin= -2079.40985242345     IErMin=20 ErrMin= 1.26D-07
 ErrMax= 1.26D-07  0.00D+00 EMaxC= 1.00D-01 BMatC= 3.66D-12 BMatP= 5.07D-12
 IDIUse=1 WtCom= 1.00D+00 WtEn= 0.00D+00
 Coeff-Com:  0.209D-02-0.703D-03-0.278D-02-0.518D-03 0.160D-02-0.341D-02
 Coeff-Com: -0.384D-02 0.166D-01 0.206D-01-0.632D-02-0.310D-01-0.826D-01
 Coeff-Com: -0.136D+00 0.124D+00 0.481D+00-0.381D-01-0.466D+00-0.399D+00
 Coeff-Com:  0.844D+00 0.679D+00
 Coeff:      0.209D-02-0.703D-03-0.278D-02-0.518D-03 0.160D-02-0.341D-02
[...]
 308,-0.00036448,-0.00000002,-0.00003266,0.00002293,-0.00000033,-0.0000
 7201,-0.00043469,0.00000599,-0.00026238,-0.00008230,0.00000113,-0.1278
 0411,0.29941503,0.00002119,0.00000109,-0.00009866,-0.00006848,0.000009
 44,-0.00248912,0.00011166,0.00015399,0.00398823,-0.00004121,0.00007832
 ,0.00365030,0.00000628,0.00002048,-0.00011495,-0.00123998,0.00145298,-
 0.04065875,-0.00008999,-0.00011698,-0.00014685,0.00001155,-0.00008211,
 0.00936950,0.00009130,0.00014085,0.00600939,0.00002341,0.00000661,-0.0
 0000574,0.00000055,0.00000490,0.00019177,0.00001721,-0.00002555,-0.000
 79247,-0.00002453,-0.00002190,0.00008554,0.00127722,-0.00157353,0.0269
 2623,-0.16061218,-0.14134536,-0.00349695,-0.01454539,-0.02771415,-0.00
 060210,-0.00438285,0.00210401,-0.00013452,-0.00110882,0.00066469,0.000
 00527,0.01180019,0.01540402,0.00029144,0.00015465,-0.00133279,-0.00000
 227,0.00033201,0.00019411,0.00001625,-0.00014597,0.00019618,-0.0000039
 1,-0.00051864,-0.00005957,0.00000153,0.00004407,-0.00001633,-0.0000014
 5,-0.00000671,0.00000246,0.00000035,0.00000375,0.00000115,0.00000012,0
 .00004295,-0.00004901,-0.00000199,0.00001912,0.00003152,-0.00000156,0.
 16743819,-0.14050602,-0.25689986,-0.00484701,0.00639444,0.00794788,0.0
 0008930,0.00204407,0.00069036,-0.00011089,0.00118871,0.00053441,0.0000
 2827,-0.01965357,-0.01798717,-0.00042214,0.00017751,0.00025856,-0.0000
 0004,-0.00010887,-0.00000004,0.00001313,-0.00003603,0.00000400,0.00000
 040,0.00004385,0.00001707,0.00000826,-0.00001211,-0.00002758,-0.000001
 39,-0.00000715,-0.00000228,0.00000052,-0.00004798,-0.00000524,0.000001
 18,-0.00001302,0.00009638,0.00000198,-0.00003291,0.00001240,-0.0000026
 4,0.14803316,0.26802952,-0.00350654,-0.00477317,-0.04086502,-0.0000376
 9,-0.00022357,0.00491759,-0.00011285,-0.00004440,0.00856953,-0.0000002
 3,0.00007436,-0.00027485,-0.00027226,-0.00034551,0.00215310,0.00002362
 ,-0.00001563,0.00001282,-0.00000317,-0.00000130,-0.00116744,-0.0000100
 4,0.00000300,0.00008106,-0.00000156,-0.00001262,-0.00053864,0.00000152
 ,0.00000326,0.00009703,-0.00000011,0.,-0.00000568,0.00000271,-0.000001
 28,-0.00004866,-0.00000381,-0.00000431,-0.00002751,-0.00000174,0.00000
 165,0.00011690,0.00375268,0.00535006,0.02777262,-0.01004267,0.03061098
 ,0.00016816,-0.11600165,0.11351592,0.00033450,0.01097114,-0.01967498,-
 0.00017037,-0.00218010,-0.00329139,-0.00013079,-0.00541802,-0.00082183
 ,-0.00020520,0.00163715,-0.00068578,0.00007083,0.00058692,-0.00074273,
 -0.00000618,0.00028172,-0.00007374,0.00000083,-0.00000511,0.00041785,0
 .00000142,-0.00006465,0.00005766,0.00000076,0.00000362,-0.00001479,-0.
 00000045,0.00000364,0.00003257,-0.00000046,0.00008924,-0.00006147,0.00
 000035,-0.00042319,0.00037437,-0.00009660,0.00134835,-0.00035122,0.000
 06610,0.12009818,-0.00328417,0.00359084,-0.00008902,0.11403585,-0.2976
 6432,-0.00135085,0.01334239,-0.01892316,-0.00012948,-0.00369616,-0.001
 65845,-0.00009078,-0.00084815,0.00141252,-0.00006796,0.00120446,0.0013
 1180,0.00001975,0.00121553,-0.00034469,-0.00001026,0.00004832,-0.00010
 417,-0.00000050,-0.00005830,0.00024695,0.00000281,-0.00002008,0.000168
 21,-0.00000100,-0.00002090,-0.00001498,0.00000048,0.00009266,-0.000070
 17,-0.00000137,-0.00000903,-0.00009980,0.00000010,-0.00107945,-0.00013
 811,-0.00007934,0.00017694,0.00065627,0.00005361,-0.12008756,0.3116050
 3,-0.00011740,0.00025148,0.00746087,0.00021684,-0.00132670,-0.04546935
 ,0.00024738,-0.00028986,0.00637428,0.00006040,-0.00021699,0.00673711,-
 0.00019858,-0.00018648,0.00946108,0.00005304,-0.00000675,-0.00340807,0
 .00000302,0.00000478,-0.00040793,-0.00000554,0.00000256,-0.00008244,0.
 00000606,0.00000224,0.00005278,0.00000223,0.00000222,0.00002234,-0.000
 00070,0.00000012,0.00000403,0.00000101,-0.00000181,-0.00002266,0.00000
 094,-0.00000124,0.00004073,-0.00012923,-0.00006491,0.00006702,0.000074
 00,0.00009170,-0.00491396,-0.00013781,0.00168101,0.02786743,-0.0051277
 6,-0.00232702,-0.00005691,0.00069541,0.00125900,0.00002610,0.00046174,
 0.00041340,0.00001685,0.00276274,-0.00190353,-0.00007022,-0.35192284,0
 .03901511,0.00034435,-0.00006328,-0.00001138,0.00000169,-0.00056034,0.
 00024184,-0.00002790,0.00006300,-0.00041644,0.00001311,0.00002397,0.00
 012283,-0.00000278,-0.00004651,0.00013743,-0.00000012,-0.00001722,-0.0
 0001997,0.00000035,0.00010109,-0.00005941,-0.00000259,-0.00011330,-0.0
 0007296,0.00000189,-0.00000751,0.00001657,-0.00000150,0.00044388,0.000
 21256,0.00000559,-0.00033912,-0.00018278,-0.00000771,0.36976002,0.0289
 1065,0.00157623,-0.00012910,0.00136954,-0.00512822,-0.00020486,-0.0006
 7390,-0.00044620,-0.00002095,-0.00197886,-0.00376699,-0.00023605,0.045
 98849,-0.06401408,-0.00049573,0.00005583,0.00028400,0.00003186,-0.0009
 5841,0.00064560,-0.00001907,-0.00004780,-0.00037406,0.00001843,0.00009
 304,-0.00007967,-0.00000593,-0.00012036,0.00003763,0.00000369,-0.00001
 949,-0.00003326,0.00000143,0.00000195,0.00002050,-0.00000412,0.0000289
 2,-0.00001931,0.00000030,-0.00007038,-0.00000104,-0.00000060,-0.000461
 34,0.00087750,0.00007321,0.00133683,0.00004281,0.00006659,-0.03495493,
 0.07048271,0.00029765,0.00027470,0.00799344,0.00021023,-0.00017161,0.0
 0607521,-0.00000279,-0.00019652,-0.00024580,-0.00026507,-0.00032127,0.
 00895452,0.00041080,-0.00111818,-0.04310282,0.00004694,0.00002719,-0.0
 0126841,-0.00002171,0.00009795,0.00106980,-0.00002415,-0.00001510,-0.0
 0053983,0.00001165,-0.00004147,0.00019192,-0.00000595,-0.00000296,-0.0
 0013080,-0.00000177,-0.00000206,-0.00001104,-0.00000493,0.00000020,0.0
 0002536,-0.00000441,0.00000249,-0.00005994,-0.00000242,0.00000046,0.00
 004851,0.00000991,0.00007510,-0.00310888,0.00006214,0.00001626,-0.0007
 9581,-0.00022002,0.00093538,0.02712002,-0.00025816,-0.00013799,0.00000
 085,-0.00032606,0.00049424,0.00000264,0.00091613,-0.00214205,-0.000060
 83,0.00052905,0.00004919,-0.00000756,0.00004095,-0.00024540,-0.0000036
 2,-0.01103374,0.00328578,-0.00011742,0.00105408,0.00173412,-0.00004972
 ,-0.01033996,-0.00215669,-0.00005036,-0.35043190,0.00403662,-0.0022218
 6,0.00095121,-0.00102914,0.00002364,0.00009598,0.00064218,-0.00000389,
 -0.00006833,0.00009186,0.00000267,0.00017690,0.00001586,0.00000009,0.0
 0096374,-0.00002698,0.00005189,-0.00006748,0.00001338,-0.00000083,0.00
 001711,-0.00002039,-0.00000097,-0.00001974,-0.00000262,-0.00000207,0.3
 6831364,-0.00026666,-0.00030802,-0.00001290,-0.00108704,0.00063105,-0.
 00000209,-0.00147874,-0.00442052,0.00000532,-0.00003893,-0.00067080,0.
 00003768,0.00002589,-0.00011494,0.00000268,-0.03107605,0.00311140,-0.0
 0017175,0.00056421,-0.00487498,0.00007169,0.03107873,0.00051893,0.0001
 8929,0.00497449,-0.05955743,0.00013901,0.00092078,0.00186387,0.0000352
 2,-0.00081080,-0.00064146,0.00013782,-0.00040006,0.00020035,-0.0000007
 9,0.00018065,0.00042705,-0.00000374,0.00032046,0.00111785,-0.00002404,
 -0.00013183,0.00001434,-0.00000156,0.00004386,-0.00000058,0.00000168,-
 0.00000568,0.00001489,0.00000105,-0.00445803,0.06266755,0.00002854,-0.
 00000140,-0.00079234,0.00000418,-0.00002033,-0.00000587,0.00006493,-0.
 00000578,0.00936954,0.00006203,0.00012953,-0.00014653,0.00000777,0.000
 02933,0.00008556,-0.00016047,-0.00014309,0.00600825,-0.00008504,-0.000
 00841,0.00365060,-0.00005251,-0.00017048,0.00398837,-0.00226313,0.0003
 8587,-0.04066306,-0.00003238,0.00006064,-0.00248805,0.00002108,0.00011
 760,0.00006867,0.00000742,-0.00001821,-0.00009870,-0.00001401,-0.00001
 317,-0.00011515,0.00005331,-0.00002015,-0.00592609,0.00000070,-0.00000
 098,0.00005619,-0.00000413,-0.00000325,0.00019174,-0.00000113,-0.00000
 306,0.00012704,0.00243129,-0.00033802,0.02692864,0.00001585,-0.0000416
 4,-0.00000107,-0.00000060,-0.00003539,0.00000027,-0.00009369,-0.000008
 79,-0.00000253,0.00003601,-0.00026313,-0.00000204,0.00011043,0.0000220
 9,-0.00000245,-0.00009088,0.00026678,-0.00000507,-0.00057590,0.0014663
 1,-0.00002113,-0.00209338,0.00323699,0.00002244,0.00070982,0.00046673,
 0.00000060,0.01187941,0.02016257,-0.00031067,0.00087569,-0.00059697,-0
 .00003774,-0.12083685,-0.11978735,0.00232030,-0.00988680,-0.03095604,0
 .00043203,0.00004542,0.00007220,0.00000132,0.00000701,-0.00001336,0.00
 000041,-0.00000130,-0.00000433,-0.00000029,-0.00000131,0.00000349,0.00
 000042,0.00001442,-0.00003537,0.00000130,0.12522673,0.00000752,-0.0000
 1736,-0.00000057,-0.00003965,0.00001709,0.00000174,0.00022344,-0.00004
 827,0.00000345,0.00003985,0.00029602,-0.00001815,-0.00001386,0.0000289
 7,0.00000091,0.00016329,-0.00041066,-0.00000483,0.00094236,0.00000173,
 -0.00001549,0.00329689,-0.00159941,0.00015739,-0.00104342,-0.00029647,
 0.00000036,-0.01394418,-0.01848030,0.00042663,-0.00006931,0.00112958,-
 0.00009723,-0.12062915,-0.29670191,0.00466255,0.00410393,0.00369512,-0
 .00005270,-0.00007300,-0.00009854,-0.00000063,-0.00000792,-0.00000408,
 0.00000011,0.00000528,-0.00000768,-0.00000057,-0.00000793,-0.00000533,
 0.00000001,0.00002904,0.00001711,0.00000250,0.12604769,0.31027547,0.00
 000254,-0.00000178,-0.00004867,-0.00000217,-0.00000323,0.00009707,-0.0
 0000676,0.00000681,0.00008111,0.00000192,0.00000556,-0.00116776,0.0000
 0248,0.00000553,-0.00002754,0.00001095,0.00000758,-0.00053864,-0.00006
 558,-0.00003067,-0.00027521,-0.00002230,0.00011038,0.00856925,0.000024
 21,-0.00001215,0.00001276,0.00017140,0.00013151,0.00491731,-0.00000683
 ,-0.00007399,-0.00491402,0.00224069,0.00463447,-0.04083854,0.00016944,
 0.00034669,0.00215575,0.00000084,0.00000128,0.00005619,0.00000009,-0.0
 0000051,0.00001937,-0.00000004,0.00000010,-0.00000569,0.00000021,-0.00
 000045,0.00001986,-0.00000233,0.00000046,0.00011693,-0.00260383,-0.005
 06430,0.02774274,0.00006127,-0.00001880,0.00000241,0.00001265,-0.00008
 952,-0.00000332,-0.00009041,-0.00012782,-0.00000920,0.00068165,-0.0003
 1086,0.00000196,-0.00002140,0.00007694,0.00000100,-0.00014613,0.000004
 49,0.00000341,-0.00078229,-0.00382574,0.00015254,-0.00014598,-0.000990
 21,0.00002426,0.00019170,0.00018881,-0.00002407,-0.00496218,-0.0015789
 7,0.00016917,-0.00051166,0.00124715,-0.00005909,-0.01074598,0.02597979
 ,0.00008650,-0.16039008,0.14583837,0.00055334,0.00001090,0.00001335,0.
 00000194,-0.00000265,0.00000280,0.00000048,-0.00001367,-0.00001763,-0.
 00000114,-0.00000647,-0.00002429,-0.00000597,0.00001962,-0.00005621,-0
 .00000031,0.00088785,-0.00023099,-0.00005400,0.16310297,-0.00008011,0.
 00006036,0.00000429,0.00016824,-0.00002159,-0.00000142,-0.00049645,-0.
 00022057,-0.00002000,0.00088910,-0.00059664,0.00003207,-0.00002512,-0.
 00011116,-0.00000207,0.00003413,0.00009035,0.00000516,-0.00375141,-0.0
 0022251,0.00015161,0.00009685,0.00016096,-0.00000442,0.00012153,0.0000
 2926,-0.00001430,-0.00168994,0.00052854,0.00006201,-0.00027280,0.00021
 569,-0.00002289,-0.00525479,0.00719778,0.00010037,0.13885913,-0.255563
 11,-0.00007628,0.00001030,-0.00001573,0.00000222,-0.00000863,-0.000003
 98,0.,-0.00001812,-0.00003682,-0.00000106,-0.00001585,-0.00002737,-0.0
 0000599,0.00003068,-0.00002817,0.00000153,0.00044451,0.00043387,-0.000
 03347,-0.14268341,0.27716257,-0.00000276,0.00000470,0.00002534,0.00000
 086,0.00000676,-0.00013075,0.00000098,0.00002854,-0.00053982,-0.000094
 22,-0.00002880,0.00106945,-0.00000479,0.00000257,-0.00005979,0.0000411
 4,0.00000872,0.00019202,0.00013831,0.00036132,0.00895469,0.00017421,0.
 00009173,-0.00024508,-0.00000015,-0.00005059,-0.00126859,0.00022624,-0
 .00011882,0.00607648,0.00001430,-0.00005832,-0.00079607,-0.00014035,-0
 .00034668,0.00799274,0.00111600,0.00018773,-0.04309514,-0.00000198,0.0
 0000110,0.00012701,0.00000013,-0.00000036,0.00001985,0.00000089,0.0000
 0243,-0.00001104,0.00000252,0.00000798,-0.00001433,-0.00000157,0.00000
 173,0.00004851,-0.00005357,-0.00003755,-0.00310950,-0.00084549,-0.0001
 9852,0.02711489,0.05953870,-0.03770368,-0.00069645,-0.05202087,-0.0251
 7718,-0.00061635,-0.02387142,0.06214636,0.00157291,-0.28042697,0.02918
 819,0.00083261,-0.21183956,-0.09788619,-0.00261952,-0.00700982,-0.0019
 6108,-0.00008254,-0.05296660,-0.03601791,-0.00023914,0.01268386,-0.012
 86589,0.00007218,-0.00120064,0.01363422,-0.00004280,-0.00095441,0.0040
 3598,0.00000767,-0.00017463,-0.00020454,0.00000845,0.00476216,-0.00146
 244,-0.00002486,-0.00614586,-0.00403702,0.00006374,-0.00084913,-0.0004
 1090,-0.00004197,-0.00041517,0.00309053,0.00009454,-0.00039484,-0.0004
 3190,-0.00005643,-0.01583210,-0.03782337,-0.00041172,-0.00007356,-0.00
 002451,-0.00004080,-0.00012939,-0.00016348,0.00000054,0.00003326,0.000
 08662,-0.00001051,0.60056522,0.00799774,-0.07745395,-0.00185430,-0.029
 79986,-0.00911415,-0.00034722,0.03878710,0.02104468,0.00015445,0.02837
 517,-0.12934391,-0.00074883,-0.12107421,-0.29657389,-0.00587297,-0.003
 35582,-0.00837802,-0.00007178,-0.04578041,-0.00200821,-0.00030827,0.00
 414800,-0.00793599,0.00017644,-0.00068506,0.00413118,-0.00003129,-0.00
 212240,-0.00010940,0.00002484,-0.00019937,-0.00043352,-0.00000301,-0.0
 0063355,0.00006786,0.00001421,-0.00116497,0.00116560,-0.00001149,0.001
 79651,0.00004732,0.00002648,0.00443331,-0.00449519,-0.00015645,-0.0001
 8448,0.00031366,-0.00003223,-0.00117469,0.00029073,0.00040747,0.000147
 60,0.00033674,-0.00001124,-0.00012809,-0.00005776,0.00000357,0.0000456
 8,0.00002133,0.00000136,0.11045603,0.58668082,-0.00030552,-0.00204950,
 0.01899499,-0.00055236,0.00014378,-0.00559412,0.00060982,0.00073029,0.
 01155319,0.00019505,-0.00160541,-0.06410032,-0.00205523,-0.00606711,-0
 .06846861,-0.00007972,-0.00029816,0.00679970,-0.00009856,0.00048146,-0
 .00449198,0.00015337,0.00010127,0.00439969,-0.00006097,-0.00007321,-0.
 00115681,-0.00003962,-0.00006272,0.00058710,0.00001078,-0.00000372,0.0
 0014725,-0.00008166,0.00008525,-0.00057333,0.00013843,-0.00004753,-0.0
 0092477,0.00007871,0.00000932,0.00041527,0.00011007,-0.00035720,0.0069
 7474,0.00006166,0.00002817,-0.00298397,-0.00001639,0.00004520,-0.00176
 782,0.00002660,-0.00000863,-0.00083929,0.00001278,0.00000538,0.0000690
 4,0.00000166,0.00000214,0.00033469,0.00863577,0.01203363,0.10786248,0.
 00193014,-0.00210953,-0.00002945,-0.00107412,-0.00218502,-0.00002690,0
 .00004230,-0.00244201,-0.00013055,0.02063986,-0.00742911,0.00018658,0.
 00173378,0.00294336,0.00004563,-0.00231561,-0.00126651,0.00000600,-0.1
 8526565,0.07808308,0.00096639,-0.02992839,0.03564894,0.00055849,-0.005
 90952,-0.00278072,0.00000253,0.00425119,-0.00047223,0.00003908,0.00041
 539,0.00023754,0.00001072,-0.03602911,-0.04181407,0.00115386,-0.188689
 29,-0.10900710,0.00361732,0.00019855,0.00028962,-0.00000720,0.00004639
 ,-0.00003620,-0.00000258,-0.00021279,-0.00021910,0.00000604,-0.0000302
 5,0.00001281,-0.00000569,-0.00071210,0.00186867,-0.00004006,-0.0067085
 3,0.00115365,0.00015523,0.01282638,0.01376542,-0.00050487,-0.00359671,
 -0.00930399,-0.00153531,0.49926479,-0.00294011,0.00290105,0.00001879,0
 .00397473,0.00001070,-0.00001689,-0.01946177,0.00470641,-0.00016392,0.
 00234464,-0.07564324,0.00027889,0.00007244,-0.00671897,-0.00006526,0.0
 1305733,0.00524641,0.00007643,0.07889415,-0.22472853,-0.00041153,0.059
 00727,0.02709076,-0.00131784,-0.00138691,-0.00948332,0.00007507,0.0041
 4968,-0.06539295,0.00062080,-0.00000991,-0.00049655,0.00006312,-0.0875
 1232,0.01809699,0.00131893,-0.08583172,-0.31968882,0.00449476,0.000117
 43,0.00006427,0.00004440,-0.00007187,-0.00023374,-0.00000325,-0.000224
 40,-0.00039579,-0.00000787,0.00005314,0.00008443,0.00001066,-0.0003392
 8,-0.00008980,0.00002207,-0.00018845,0.00179749,-0.00001671,-0.0228788
 2,-0.02836866,0.00008085,0.00872688,-0.00399206,0.00028807,0.05754597,
 0.68831609,-0.00011336,0.00003600,-0.00057365,0.00004217,0.00006055,0.
 00058762,-0.00004773,-0.00019512,0.00439796,-0.00043197,-0.00024779,-0
 .00450041,0.00010871,-0.00009945,-0.00092403,0.00005845,0.00009448,-0.
 00115666,0.00144005,0.00052561,-0.06412724,-0.00035024,-0.00080357,0.0
 1155000,0.00020977,0.00017313,0.00680064,-0.00036070,0.00033407,-0.005
 59270,0.00001051,-0.00006344,-0.00298371,0.00144463,0.00115472,0.01900
 355,0.00409269,0.00404732,-0.06844525,0.00002134,-0.00001759,-0.000838
 90,0.00000097,-0.00001471,0.00006891,0.00000799,-0.00000907,0.00014718
 ,-0.00000111,-0.00000350,0.00033482,0.00002689,-0.00007191,0.00041533,
 0.00034464,0.00005974,0.00697777,-0.00005189,-0.00001474,-0.00177102,-
 0.00102556,0.00121616,0.00874871,-0.00598277,-0.01246104,0.10790516,-0
 .00124742,-0.00062105,-0.00002434,0.00021079,0.00039546,0.00001376,-0.
 00202990,-0.00201627,0.00009592,-0.01093643,0.01503030,0.00079929,0.00
 443308,-0.00499799,-0.00003986,0.00040887,0.00073428,-0.00002466,-0.02
 051254,0.01029267,0.00074412,0.00187805,0.00102281,0.00024287,-0.00036
 479,-0.00050347,-0.00000815,-0.00030074,0.00030274,-0.00003681,0.00022
 245,-0.00007832,-0.00003552,0.00301835,0.00028107,0.00015968,-0.004244
 84,-0.00647230,0.00060056,-0.00006878,-0.00017188,-0.00000252,0.000125
 32,-0.00038258,0.00000576,0.00006004,-0.00013621,-0.00001518,-0.000224
 09,-0.00066581,-0.00007107,0.00023820,-0.00010783,0.00001140,0.0006099
 9,0.00020995,-0.00001670,-0.00000938,-0.00020990,-0.00005534,-0.019681
 49,0.01941978,-0.00520934,-0.08087669,-0.00709812,0.00055653,0.1292919
 6,-0.00193842,0.00284169,-0.00018298,0.00056904,0.00006305,0.00004769,
 -0.00101204,0.00136150,-0.00020971,0.01526650,-0.00731441,-0.00043681,
 -0.00196312,-0.01018252,-0.00071219,-0.00010067,-0.00024482,-0.0000064
 8,0.01005873,0.00224813,-0.00049268,0.00001877,-0.00254770,0.00000685,
 0.00033124,0.00052901,0.00002670,0.00012942,0.00057477,-0.00003282,-0.
 00005160,-0.00005180,-0.00000145,0.00160071,-0.00142588,0.00010620,-0.
 00950384,-0.00153360,0.00034729,-0.00026768,0.00009257,-0.00001445,-0.
 00004275,0.00052043,0.00002380,-0.00016283,0.00011063,0.00003209,-0.00
 031932,-0.00046151,0.00002622,-0.00001198,-0.00021443,0.00000849,-0.00
 013047,0.00003532,-0.00001667,-0.00056413,-0.00068440,0.00005211,0.024
 80526,-0.07420386,-0.00338079,-0.01248349,-0.01308216,0.00630015,-0.02
 422735,0.10356998,0.00001272,0.00029393,0.00207296,-0.00000470,-0.0000
 4596,-0.00030069,-0.00007560,0.00022118,0.00185304,0.00158395,-0.00059
 115,0.00129766,-0.00059013,-0.00042555,0.00083435,-0.00005520,-0.00002
 635,-0.00008050,0.00124798,-0.00112710,0.00130235,-0.00023448,-0.00003
 666,0.00185268,-0.00000298,0.00006088,-0.00008026,0.00003955,0.0000292
 8,-0.00030059,-0.00003526,0.00000856,-0.00032567,-0.00025357,-0.000155
 58,0.00207247,0.00008161,0.00070765,0.00083939,-0.00003063,0.00003316,
 0.00001968,-0.00001875,0.00009798,0.00009093,-0.00002362,0.00002815,-0
 .00032568,-0.00000430,-0.00006066,-0.00091502,-0.00004356,0.00001180,0
 .00001975,-0.00009612,-0.00002875,0.00009041,0.00005581,0.00003376,-0.
 00091455,-0.00537978,-0.00460954,-0.01598582,0.00151751,0.00707148,-0.
 01602406,0.00230956,-0.00149054,0.02290717\\0.00010312,-0.00001384,-0.
 00001347,-0.00008216,-0.00000589,0.00003641,0.00000515,0.00001389,0.00
 005630,0.00005899,-0.00000814,-0.00002216,-0.00001534,0.00002857,-0.00
 015109,-0.00004657,0.00002806,0.00013300,0.00003767,-0.00004183,-0.000
 02603,0.00000054,-0.00000452,0.00006206,-0.00004552,0.00003039,0.00012
 890,-0.00003903,0.00006896,0.00004653,0.00002280,-0.00000788,0.0001124
 9,0.00004833,-0.00008083,-0.00002832,-0.00004319,0.00002158,-0.0000876
 2,0.00002877,-0.00001218,0.00018378,-0.00001636,-0.00001819,-0.0000361
 0,0.00002264,-0.00001586,0.00010692,-0.00002133,-0.00002343,-0.0001526
 9,0.00002417,-0.00001821,0.00018714,0.00000744,0.00002353,-0.00002819,
 0.00000662,0.00002846,-0.00016767,-0.00004991,-0.00002674,-0.00004638,
 -0.00003473,-0.00002209,-0.00011360,0.00002791,0.00005620,-0.00018023\
 \\@


 THE UNDERLYING PHYSICAL LAWS NECESSARY FOR THE 
 MATHEMATICAL THEORY OF A LARGE PART OF PHYSICS AND THE
 WHOLE OF CHEMISTRY ARE THUS COMPLETELY KNOWN, AND THE
 DIFFICULTY IS ONLY THAT THE EXACT APPLICATION OF THESE
 LAWS LEADS TO EQUATIONS MUCH TOO COMPLICATED 
 TO BE SOLUBLE.

                                        -- P. A. M. DIRAC, 1929
 Job cpu time:       0 days  0 hours 37 minutes 36.3 seconds.
 Elapsed time:       0 days  0 hours  9 minutes 24.7 seconds.
 File lengths (MBytes):  RWF=    267 Int=      0 D2E=      0 Chk=     12 Scr=      1
 Normal termination of Gaussian 16 at Wed Feb 28 19:46:17 2018.
