 Entering Gaussian System, Link 0=g16
 Input=NS1_bound.gjf
 Output=NS1_bound.out
 Initial command:
 /n/sw/g16_nehalem/g16/l1.exe "/scratch/dhuang9_NS1_bound/Gau-8166.inp" -scrdir="/scratch/dhuang9_NS1_bound/"
 Entering Link 1 = /n/sw/g16_nehalem/g16/l1.exe PID=      8167.
  
 Copyright (c) 1988,1990,1992,1993,1995,1998,2003,2009,2016,
            Gaussian, Inc.  All Rights Reserved.
  
 This is part of the Gaussian(R) 16 program.  It is based on
 the Gaussian(R) 09 system (copyright 2009, Gaussian, Inc.),
 the Gaussian(R) 03 system (copyright 2003, Gaussian, Inc.),
 the Gaussian(R) 98 system (copyright 1998, Gaussian, Inc.),
 the Gaussian(R) 94 system (copyright 1995, Gaussian, Inc.),
 the Gaussian 92(TM) system (copyright 1992, Gaussian, Inc.),
 the Gaussian 90(TM) system (copyright 1990, Gaussian, Inc.),
 the Gaussian 88(TM) system (copyright 1988, Gaussian, Inc.),
 the Gaussian 86(TM) system (copyright 1986, Carnegie Mellon
 University), and the Gaussian 82(TM) system (copyright 1983,
 Carnegie Mellon University). Gaussian is a federally registered
 trademark of Gaussian, Inc.
  
 This software contains proprietary and confidential information,
 including trade secrets, belonging to Gaussian, Inc.
  
 This software is provided under written license and may be
 used, copied, transmitted, or stored only in accord with that
 written license.
  
 The following legend is applicable only to US Government
 contracts under FAR:
  
                    RESTRICTED RIGHTS LEGEND
  
 Use, reproduction and disclosure by the US Government is
 subject to restrictions as set forth in subparagraphs (a)
 and (c) of the Commercial Computer Software - Restricted
 Rights clause in FAR 52.227-19.
  
 Gaussian, Inc.
 340 Quinnipiac St., Bldg. 40, Wallingford CT 06492
  
  
 ---------------------------------------------------------------
 Warning -- This program may not be used in any manner that
 competes with the business of Gaussian, Inc. or will provide
 assistance to any competitor of Gaussian, Inc.  The licensee
 of this program is prohibited from giving any competitor of
 Gaussian, Inc. access to this program.  By using this program,
 the user acknowledges that Gaussian, Inc. is engaged in the
 business of creating and licensing software in the field of
 computational chemistry and represents and warrants to the
 licensee that it is not a competitor of Gaussian, Inc. and that
 it will not use this program in any manner prohibited above.
 ---------------------------------------------------------------
  

 Cite this work as:
 Gaussian 16, Revision A.03,
 M. J. Frisch, G. W. Trucks, H. B. Schlegel, G. E. Scuseria, 
 M. A. Robb, J. R. Cheeseman, G. Scalmani, V. Barone, 
 G. A. Petersson, H. Nakatsuji, X. Li, M. Caricato, A. V. Marenich, 
 J. Bloino, B. G. Janesko, R. Gomperts, B. Mennucci, H. P. Hratchian, 
 J. V. Ortiz, A. F. Izmaylov, J. L. Sonnenberg, D. Williams-Young, 
 F. Ding, F. Lipparini, F. Egidi, J. Goings, B. Peng, A. Petrone, 
 T. Henderson, D. Ranasinghe, V. G. Zakrzewski, J. Gao, N. Rega, 
 G. Zheng, W. Liang, M. Hada, M. Ehara, K. Toyota, R. Fukuda, 
 J. Hasegawa, M. Ishida, T. Nakajima, Y. Honda, O. Kitao, H. Nakai, 
 T. Vreven, K. Throssell, J. A. Montgomery, Jr., J. E. Peralta, 
 F. Ogliaro, M. J. Bearpark, J. J. Heyd, E. N. Brothers, K. N. Kudin, 
 V. N. Staroverov, T. A. Keith, R. Kobayashi, J. Normand, 
 K. Raghavachari, A. P. Rendell, J. C. Burant, S. S. Iyengar, 
 J. Tomasi, M. Cossi, J. M. Millam, M. Klene, C. Adamo, R. Cammi, 
 J. W. Ochterski, R. L. Martin, K. Morokuma, O. Farkas, 
 J. B. Foresman, and D. J. Fox, Gaussian, Inc., Wallingford CT, 2016.
 
 ******************************************
 Gaussian 16:  ES64L-G16RevA.03 25-Dec-2016
                28-Feb-2018 
 ******************************************
 %nprocshared=4
 Will use up to    4 processors via shared memory.
 %mem=3GB
 ----------------------------------------------------------------------
 #p b3lyp empiricaldispersion=gd3bj 6-31g scrf=(pcm,solvent=water) opt 
 freq=noraman
 ----------------------------------------------------------------------
 1/18=20,19=15,26=3,38=1/1,3;
 2/9=110,12=2,17=6,18=5,40=1/2;
 3/5=1,6=6,11=2,25=1,30=1,70=2201,71=1,72=1,74=-5,124=41/1,2,3;
 4//1;
 5/5=2,38=5,53=1/2;
 6/7=2,8=2,9=2,10=2,28=1/1;
 7//1,2,3,16;
 1/18=20,19=15,26=3/3(2);
 2/9=110/2;
 99//99;
 2/9=110/2;
 3/5=1,6=6,11=2,25=1,30=1,70=2205,71=1,72=1,74=-5,124=41/1,2,3;
 4/5=5,16=3,69=1/1;
 5/5=2,38=5,53=1/2;
 7//1,2,3,16;
 1/18=20,19=15,26=3/3(-5);
 2/9=110/2;
 6/7=2,8=2,9=2,10=2,19=2,28=1/1;
 99/9=1/99;
 Leave Link    1 at Wed Feb 28 16:08:40 2018, MaxMem=   402653184 cpu:               0.2 elap:               0.1
 (Enter /n/sw/g16_nehalem/g16/l101.exe)
 ---
 NS1
 ---
 Symbolic Z-matrix:
 Charge =  0 Multiplicity = 1
 C                    -28.5595  -28.0721   3.4647 
 C                    -30.0198  -28.4991   3.2816 
 C                    -30.165   -29.8447   3.996 
 C                    -28.7252  -30.1423   4.3957 
 O                    -28.0903  -28.908    4.5115 
 N                    -28.5139  -30.9898   5.6344 
 C                    -27.5593  -31.9557   5.7853 
 C                    -27.7541  -32.4608   7.0578 
 N                    -28.796   -31.8696   7.6634 
 C                    -29.2169  -30.9903   6.7885 
 N                    -26.6117  -32.3625   4.9047 
 C                    -25.8145  -33.3014   5.4381 
 N                    -25.8763  -33.8727   6.6489 
 C                    -26.8726  -33.4785   7.4867 
 N                    -26.9924  -34.1003   8.7265 
 O                    -30.3426  -28.5018   1.9072 
 O                    -30.7614  -30.9095   3.2799 
 C                    -28.3834  -26.5876   3.8216 
 H                    -28.2164  -30.6695   3.5834 
 H                    -27.9688  -28.3227   2.5812 
 C                    -29.0826  -25.5966   2.8425 
 C                    -28.9592  -24.2189   3.3386 
 C                    -28.6664  -25.7129   1.3475 
 C                    -28.8314  -23.0898   3.7779 
 C                    -28.617   -21.8127   4.418 
 C                    -29.0061  -20.6151   3.8147 
 C                    -28.8192  -19.4119   4.4969 
 C                    -28.2624  -19.4079   5.7795 
 C                    -27.8703  -20.6142   6.374 
 C                    -28.0485  -21.8117   5.6843 
 C                    -27.3078  -20.6532   7.754 
 N                    -26.2081  -21.3801   7.9215 
 O                    -27.8698  -20.1009   8.6878 
 C                    -27.1491  -25.81     1.1117 
 C                    -26.6738  -25.5237  -0.3358 
 C                    -26.4272  -24.0145  -0.6075 
 N                    -25.3291  -26.2436  -0.517 
 O                    -25.2786  -23.5321  -0.5095 
 O                    -27.4089  -23.3072  -0.9073 
 H                    -30.6864  -27.7972   3.7877 
 H                    -30.7185  -29.683    4.9166 
 H                    -30.0455  -30.3127   6.9407 
 H                    -25.021   -33.6548   4.7956 
 H                    -26.4928  -34.9716   8.9005 
 H                    -27.7944  -33.8554   9.288 
 H                    -29.7767  -29.1487   1.4753 
 H                    -30.2024  -31.1897   2.5376 
 H                    -28.7693  -26.4308   4.8316 
 H                    -27.3167  -26.3682   3.8905 
 H                    -30.1591  -25.7667   2.8844 
 H                    -29.1228  -26.593    0.8991 
 H                    -29.1005  -24.8986   0.7756 
 H                    -29.4507  -20.6159   2.8285 
 H                    -29.117   -18.4825   4.0351 
 H                    -28.142   -18.4703   6.3032 
 H                    -27.769   -22.7533   6.1424 
 H                    -25.8345  -21.4985   8.85 
 H                    -25.6417  -21.679    7.1349 
 H                    -26.6027  -25.1837   1.8231 
 H                    -26.9006  -26.8394   1.3737 
 H                    -27.3101  -25.9867  -1.0929 
 H                    -24.9765  -26.1035  -1.4555 
 H                    -24.6597  -25.8873   0.1556 
 H                    -25.4433  -27.2367  -0.3524 
 
 ITRead=  0  0  0  0  0  0  0  0  0  0  0  0  0  0  0  0  0  0  0  0
 ITRead=  0  0  0  0  0  0  0  0  0  0  0  0  0  0  0  0  0  0  0  0
 ITRead=  0  0  0  0  0  0  0  0  0  0  0  0  0  0  0  0  0  0  0  0
 ITRead=  0  0  0  0
 MicOpt= -1 -1 -1 -1 -1 -1 -1 -1 -1 -1 -1 -1 -1 -1 -1 -1 -1 -1 -1 -1
 MicOpt= -1 -1 -1 -1 -1 -1 -1 -1 -1 -1 -1 -1 -1 -1 -1 -1 -1 -1 -1 -1
 MicOpt= -1 -1 -1 -1 -1 -1 -1 -1 -1 -1 -1 -1 -1 -1 -1 -1 -1 -1 -1 -1
 MicOpt= -1 -1 -1 -1
 NAtoms=     64 NQM=       64 NQMF=       0 NMMI=      0 NMMIF=      0
                NMic=       0 NMicF=      0.
                    Isotopes and Nuclear Properties:
 (Nuclear quadrupole moments (NQMom) in fm**2, nuclear magnetic moments (NMagM)
  in nuclear magnetons)

  Atom         1           2           3           4           5           6           7           8           9          10
 IAtWgt=          12          12          12          12          16          14          12          12          14          12
 AtmWgt=  12.0000000  12.0000000  12.0000000  12.0000000  15.9949146  14.0030740  12.0000000  12.0000000  14.0030740  12.0000000
 NucSpn=           0           0           0           0           0           2           0           0           2           0
 AtZEff=   0.0000000   0.0000000   0.0000000   0.0000000   0.0000000   0.0000000   0.0000000   0.0000000   0.0000000   0.0000000
 NQMom=    0.0000000   0.0000000   0.0000000   0.0000000   0.0000000   2.0440000   0.0000000   0.0000000   2.0440000   0.0000000
 NMagM=    0.0000000   0.0000000   0.0000000   0.0000000   0.0000000   0.4037610   0.0000000   0.0000000   0.4037610   0.0000000
 AtZNuc=   6.0000000   6.0000000   6.0000000   6.0000000   8.0000000   7.0000000   6.0000000   6.0000000   7.0000000   6.0000000

  Atom        11          12          13          14          15          16          17          18          19          20
 IAtWgt=          14          12          14          12          14          16          16          12           1           1
 AtmWgt=  14.0030740  12.0000000  14.0030740  12.0000000  14.0030740  15.9949146  15.9949146  12.0000000   1.0078250   1.0078250
 NucSpn=           2           0           2           0           2           0           0           0           1           1
 AtZEff=   0.0000000   0.0000000   0.0000000   0.0000000   0.0000000   0.0000000   0.0000000   0.0000000   0.0000000   0.0000000
 NQMom=    2.0440000   0.0000000   2.0440000   0.0000000   2.0440000   0.0000000   0.0000000   0.0000000   0.0000000   0.0000000
 NMagM=    0.4037610   0.0000000   0.4037610   0.0000000   0.4037610   0.0000000   0.0000000   0.0000000   2.7928460   2.7928460
 AtZNuc=   7.0000000   6.0000000   7.0000000   6.0000000   7.0000000   8.0000000   8.0000000   6.0000000   1.0000000   1.0000000

  Atom        21          22          23          24          25          26          27          28          29          30
 IAtWgt=          12          12          12          12          12          12          12          12          12          12
 AtmWgt=  12.0000000  12.0000000  12.0000000  12.0000000  12.0000000  12.0000000  12.0000000  12.0000000  12.0000000  12.0000000
 NucSpn=           0           0           0           0           0           0           0           0           0           0
 AtZEff=   0.0000000   0.0000000   0.0000000   0.0000000   0.0000000   0.0000000   0.0000000   0.0000000   0.0000000   0.0000000
 NQMom=    0.0000000   0.0000000   0.0000000   0.0000000   0.0000000   0.0000000   0.0000000   0.0000000   0.0000000   0.0000000
 NMagM=    0.0000000   0.0000000   0.0000000   0.0000000   0.0000000   0.0000000   0.0000000   0.0000000   0.0000000   0.0000000
 AtZNuc=   6.0000000   6.0000000   6.0000000   6.0000000   6.0000000   6.0000000   6.0000000   6.0000000   6.0000000   6.0000000

  Atom        31          32          33          34          35          36          37          38          39          40
 IAtWgt=          12          14          16          12          12          12          14          16          16           1
 AtmWgt=  12.0000000  14.0030740  15.9949146  12.0000000  12.0000000  12.0000000  14.0030740  15.9949146  15.9949146   1.0078250
 NucSpn=           0           2           0           0           0           0           2           0           0           1
 AtZEff=   0.0000000   0.0000000   0.0000000   0.0000000   0.0000000   0.0000000   0.0000000   0.0000000   0.0000000   0.0000000
 NQMom=    0.0000000   2.0440000   0.0000000   0.0000000   0.0000000   0.0000000   2.0440000   0.0000000   0.0000000   0.0000000
 NMagM=    0.0000000   0.4037610   0.0000000   0.0000000   0.0000000   0.0000000   0.4037610   0.0000000   0.0000000   2.7928460
 AtZNuc=   6.0000000   7.0000000   8.0000000   6.0000000   6.0000000   6.0000000   7.0000000   8.0000000   8.0000000   1.0000000

  Atom        41          42          43          44          45          46          47          48          49          50
 IAtWgt=           1           1           1           1           1           1           1           1           1           1
 AtmWgt=   1.0078250   1.0078250   1.0078250   1.0078250   1.0078250   1.0078250   1.0078250   1.0078250   1.0078250   1.0078250
 NucSpn=           1           1           1           1           1           1           1           1           1           1
 AtZEff=   0.0000000   0.0000000   0.0000000   0.0000000   0.0000000   0.0000000   0.0000000   0.0000000   0.0000000   0.0000000
 NQMom=    0.0000000   0.0000000   0.0000000   0.0000000   0.0000000   0.0000000   0.0000000   0.0000000   0.0000000   0.0000000
 NMagM=    2.7928460   2.7928460   2.7928460   2.7928460   2.7928460   2.7928460   2.7928460   2.7928460   2.7928460   2.7928460
 AtZNuc=   1.0000000   1.0000000   1.0000000   1.0000000   1.0000000   1.0000000   1.0000000   1.0000000   1.0000000   1.0000000

  Atom        51          52          53          54          55          56          57          58          59          60
 IAtWgt=           1           1           1           1           1           1           1           1           1           1
 AtmWgt=   1.0078250   1.0078250   1.0078250   1.0078250   1.0078250   1.0078250   1.0078250   1.0078250   1.0078250   1.0078250
 NucSpn=           1           1           1           1           1           1           1           1           1           1
 AtZEff=   0.0000000   0.0000000   0.0000000   0.0000000   0.0000000   0.0000000   0.0000000   0.0000000   0.0000000   0.0000000
 NQMom=    0.0000000   0.0000000   0.0000000   0.0000000   0.0000000   0.0000000   0.0000000   0.0000000   0.0000000   0.0000000
 NMagM=    2.7928460   2.7928460   2.7928460   2.7928460   2.7928460   2.7928460   2.7928460   2.7928460   2.7928460   2.7928460
 AtZNuc=   1.0000000   1.0000000   1.0000000   1.0000000   1.0000000   1.0000000   1.0000000   1.0000000   1.0000000   1.0000000

  Atom        61          62          63          64
 IAtWgt=           1           1           1           1
 AtmWgt=   1.0078250   1.0078250   1.0078250   1.0078250
 NucSpn=           1           1           1           1
 AtZEff=   0.0000000   0.0000000   0.0000000   0.0000000
 NQMom=    0.0000000   0.0000000   0.0000000   0.0000000
 NMagM=    2.7928460   2.7928460   2.7928460   2.7928460
 AtZNuc=   1.0000000   1.0000000   1.0000000   1.0000000
 Leave Link  101 at Wed Feb 28 16:08:41 2018, MaxMem=   402653184 cpu:               1.2 elap:               0.3
 (Enter /n/sw/g16_nehalem/g16/l103.exe)

 GradGradGradGradGradGradGradGradGradGradGradGradGradGradGradGradGradGrad
 Berny optimization.
 Initialization pass.
                           ----------------------------
                           !    Initial Parameters    !
                           ! (Angstroms and Degrees)  !
 --------------------------                            --------------------------
 ! Name  Definition              Value          Derivative Info.                !
 --------------------------------------------------------------------------------
 ! R1    R(1,2)                  1.5324         estimate D2E/DX2                !
 ! R2    R(1,5)                  1.4194         estimate D2E/DX2                !
 ! R3    R(1,18)                 1.5369         estimate D2E/DX2                !
 ! R4    R(1,20)                 1.0919         estimate D2E/DX2                !
 ! R5    R(2,3)                  1.5304         estimate D2E/DX2                !
 ! R6    R(2,16)                 1.4118         estimate D2E/DX2                !
 ! R7    R(2,40)                 1.0923         estimate D2E/DX2                !
 ! R8    R(3,4)                  1.5236         estimate D2E/DX2                !
 ! R9    R(3,17)                 1.415          estimate D2E/DX2                !
 ! R10   R(3,41)                 1.0863         estimate D2E/DX2                !
 ! R11   R(4,5)                  1.3928         estimate D2E/DX2                !
 ! R12   R(4,6)                  1.5157         estimate D2E/DX2                !
 ! R13   R(4,19)                 1.0939         estimate D2E/DX2                !
 ! R14   R(6,7)                  1.3664         estimate D2E/DX2                !
 ! R15   R(6,10)                 1.3514         estimate D2E/DX2                !
 ! R16   R(7,8)                  1.3829         estimate D2E/DX2                !
 ! R17   R(7,11)                 1.3561         estimate D2E/DX2                !
 ! R18   R(8,9)                  1.3423         estimate D2E/DX2                !
 ! R19   R(8,14)                 1.4131         estimate D2E/DX2                !
 ! R20   R(9,10)                 1.3099         estimate D2E/DX2                !
 ! R21   R(10,42)                1.0811         estimate D2E/DX2                !
 ! R22   R(11,12)                1.3422         estimate D2E/DX2                !
 ! R23   R(12,13)                1.3402         estimate D2E/DX2                !
 ! R24   R(12,43)                1.0804         estimate D2E/DX2                !
 ! R25   R(13,14)                1.3601         estimate D2E/DX2                !
 ! R26   R(14,15)                1.3922         estimate D2E/DX2                !
 ! R27   R(15,44)                1.0193         estimate D2E/DX2                !
 ! R28   R(15,45)                1.0092         estimate D2E/DX2                !
 ! R29   R(16,46)                0.9619         estimate D2E/DX2                !
 ! R30   R(17,47)                0.9706         estimate D2E/DX2                !
 ! R31   R(18,21)                1.5587         estimate D2E/DX2                !
 ! R32   R(18,48)                1.0925         estimate D2E/DX2                !
 ! R33   R(18,49)                1.0912         estimate D2E/DX2                !
 ! R34   R(21,22)                1.4695         estimate D2E/DX2                !
 ! R35   R(21,23)                1.5562         estimate D2E/DX2                !
 ! R36   R(21,50)                1.0907         estimate D2E/DX2                !
 ! R37   R(22,24)                1.2183         estimate D2E/DX2                !
 ! R38   R(23,34)                1.5386         estimate D2E/DX2                !
 ! R39   R(23,51)                1.0881         estimate D2E/DX2                !
 ! R40   R(23,52)                1.0856         estimate D2E/DX2                !
 ! R41   R(24,25)                1.4445         estimate D2E/DX2                !
 ! R42   R(25,26)                1.3963         estimate D2E/DX2                !
 ! R43   R(25,30)                1.3881         estimate D2E/DX2                !
 ! R44   R(26,27)                1.3957         estimate D2E/DX2                !
 ! R45   R(26,53)                1.0818         estimate D2E/DX2                !
 ! R46   R(27,28)                1.3983         estimate D2E/DX2                !
 ! R47   R(27,54)                1.0797         estimate D2E/DX2                !
 ! R48   R(28,29)                1.4008         estimate D2E/DX2                !
 ! R49   R(28,55)                1.0807         estimate D2E/DX2                !
 ! R50   R(29,30)                1.3934         estimate D2E/DX2                !
 ! R51   R(29,31)                1.4907         estimate D2E/DX2                !
 ! R52   R(30,56)                1.0838         estimate D2E/DX2                !
 ! R53   R(31,32)                1.3288         estimate D2E/DX2                !
 ! R54   R(31,33)                1.2218         estimate D2E/DX2                !
 ! R55   R(32,57)                1.0078         estimate D2E/DX2                !
 ! R56   R(32,58)                1.0143         estimate D2E/DX2                !
 ! R57   R(34,35)                1.5502         estimate D2E/DX2                !
 ! R58   R(34,59)                1.094          estimate D2E/DX2                !
 ! R59   R(34,60)                1.0909         estimate D2E/DX2                !
 ! R60   R(35,36)                1.5532         estimate D2E/DX2                !
 ! R61   R(35,37)                1.536          estimate D2E/DX2                !
 ! R62   R(35,61)                1.092          estimate D2E/DX2                !
 ! R63   R(36,38)                1.2496         estimate D2E/DX2                !
 ! R64   R(36,39)                1.2466         estimate D2E/DX2                !
 ! R65   R(37,62)                1.0123         estimate D2E/DX2                !
 ! R66   R(37,63)                1.0136         estimate D2E/DX2                !
 ! R67   R(37,64)                1.0131         estimate D2E/DX2                !
 ! A1    A(2,1,5)              103.8292         estimate D2E/DX2                !
 ! A2    A(2,1,18)             113.9583         estimate D2E/DX2                !
 ! A3    A(2,1,20)             110.7863         estimate D2E/DX2                !
 ! A4    A(5,1,18)             111.0813         estimate D2E/DX2                !
 ! A5    A(5,1,20)             106.424          estimate D2E/DX2                !
 ! A6    A(18,1,20)            110.3395         estimate D2E/DX2                !
 ! A7    A(1,2,3)              106.2384         estimate D2E/DX2                !
 ! A8    A(1,2,16)             109.5564         estimate D2E/DX2                !
 ! A9    A(1,2,40)             110.3118         estimate D2E/DX2                !
 ! A10   A(3,2,16)             115.5354         estimate D2E/DX2                !
 ! A11   A(3,2,40)             106.9061         estimate D2E/DX2                !
 ! A12   A(16,2,40)            108.225          estimate D2E/DX2                !
 ! A13   A(2,3,4)              101.8029         estimate D2E/DX2                !
 ! A14   A(2,3,17)             117.7352         estimate D2E/DX2                !
 ! A15   A(2,3,41)             108.2444         estimate D2E/DX2                !
 ! A16   A(4,3,17)             112.5863         estimate D2E/DX2                !
 ! A17   A(4,3,41)             106.7538         estimate D2E/DX2                !
 ! A18   A(17,3,41)            109.0345         estimate D2E/DX2                !
 ! A19   A(3,4,5)              106.229          estimate D2E/DX2                !
 ! A20   A(3,4,6)              117.0881         estimate D2E/DX2                !
 ! A21   A(3,4,19)             109.808          estimate D2E/DX2                !
 ! A22   A(5,4,6)              111.347          estimate D2E/DX2                !
 ! A23   A(5,4,19)             106.0695         estimate D2E/DX2                !
 ! A24   A(6,4,19)             105.8157         estimate D2E/DX2                !
 ! A25   A(1,5,4)              108.0523         estimate D2E/DX2                !
 ! A26   A(4,6,7)              125.6563         estimate D2E/DX2                !
 ! A27   A(4,6,10)             128.7298         estimate D2E/DX2                !
 ! A28   A(7,6,10)             105.5967         estimate D2E/DX2                !
 ! A29   A(6,7,8)              105.1537         estimate D2E/DX2                !
 ! A30   A(6,7,11)             128.9429         estimate D2E/DX2                !
 ! A31   A(8,7,11)             125.9033         estimate D2E/DX2                !
 ! A32   A(7,8,9)              111.3227         estimate D2E/DX2                !
 ! A33   A(7,8,14)             117.032          estimate D2E/DX2                !
 ! A34   A(9,8,14)             131.6422         estimate D2E/DX2                !
 ! A35   A(8,9,10)             104.1066         estimate D2E/DX2                !
 ! A36   A(6,10,9)             113.7983         estimate D2E/DX2                !
 ! A37   A(6,10,42)            121.2447         estimate D2E/DX2                !
 ! A38   A(9,10,42)            124.957          estimate D2E/DX2                !
 ! A39   A(7,11,12)            111.5195         estimate D2E/DX2                !
 ! A40   A(11,12,13)           129.036          estimate D2E/DX2                !
 ! A41   A(11,12,43)           115.3842         estimate D2E/DX2                !
 ! A42   A(13,12,43)           115.5738         estimate D2E/DX2                !
 ! A43   A(12,13,14)           117.8215         estimate D2E/DX2                !
 ! A44   A(8,14,13)            118.6027         estimate D2E/DX2                !
 ! A45   A(8,14,15)            122.5686         estimate D2E/DX2                !
 ! A46   A(13,14,15)           118.826          estimate D2E/DX2                !
 ! A47   A(14,15,44)           119.4474         estimate D2E/DX2                !
 ! A48   A(14,15,45)           117.0969         estimate D2E/DX2                !
 ! A49   A(44,15,45)           120.1293         estimate D2E/DX2                !
 ! A50   A(2,16,46)            107.6909         estimate D2E/DX2                !
 ! A51   A(3,17,47)            111.1948         estimate D2E/DX2                !
 ! A52   A(1,18,21)            114.6346         estimate D2E/DX2                !
 ! A53   A(1,18,48)            108.2299         estimate D2E/DX2                !
 ! A54   A(1,18,49)            108.7157         estimate D2E/DX2                !
 ! A55   A(21,18,48)           109.3298         estimate D2E/DX2                !
 ! A56   A(21,18,49)           110.5075         estimate D2E/DX2                !
 ! A57   A(48,18,49)           104.9549         estimate D2E/DX2                !
 ! A58   A(18,21,22)           110.2633         estimate D2E/DX2                !
 ! A59   A(18,21,23)           115.8462         estimate D2E/DX2                !
 ! A60   A(18,21,50)           108.6304         estimate D2E/DX2                !
 ! A61   A(22,21,23)           111.8346         estimate D2E/DX2                !
 ! A62   A(22,21,50)           102.482          estimate D2E/DX2                !
 ! A63   A(23,21,50)           106.8115         estimate D2E/DX2                !
 ! A64   A(21,23,34)           114.563          estimate D2E/DX2                !
 ! A65   A(21,23,51)           110.1304         estimate D2E/DX2                !
 ! A66   A(21,23,52)           110.0644         estimate D2E/DX2                !
 ! A67   A(34,23,51)           107.4243         estimate D2E/DX2                !
 ! A68   A(34,23,52)           111.1574         estimate D2E/DX2                !
 ! A69   A(51,23,52)           102.8196         estimate D2E/DX2                !
 ! A70   A(24,25,26)           121.6997         estimate D2E/DX2                !
 ! A71   A(24,25,30)           117.7538         estimate D2E/DX2                !
 ! A72   A(26,25,30)           120.51           estimate D2E/DX2                !
 ! A73   A(25,26,27)           119.3992         estimate D2E/DX2                !
 ! A74   A(25,26,53)           120.5168         estimate D2E/DX2                !
 ! A75   A(27,26,53)           120.0838         estimate D2E/DX2                !
 ! A76   A(26,27,28)           120.2746         estimate D2E/DX2                !
 ! A77   A(26,27,54)           119.7407         estimate D2E/DX2                !
 ! A78   A(28,27,54)           119.9809         estimate D2E/DX2                !
 ! A79   A(27,28,29)           119.8867         estimate D2E/DX2                !
 ! A80   A(27,28,55)           119.4308         estimate D2E/DX2                !
 ! A81   A(29,28,55)           120.6823         estimate D2E/DX2                !
 ! A82   A(28,29,30)           119.6182         estimate D2E/DX2                !
 ! A83   A(28,29,31)           121.3998         estimate D2E/DX2                !
 ! A84   A(30,29,31)           118.9464         estimate D2E/DX2                !
 ! A85   A(25,30,29)           120.3028         estimate D2E/DX2                !
 ! A86   A(25,30,56)           119.3804         estimate D2E/DX2                !
 ! A87   A(29,30,56)           120.2965         estimate D2E/DX2                !
 ! A88   A(29,31,32)           116.3123         estimate D2E/DX2                !
 ! A89   A(29,31,33)           121.4735         estimate D2E/DX2                !
 ! A90   A(32,31,33)           122.1129         estimate D2E/DX2                !
 ! A91   A(31,32,57)           119.1551         estimate D2E/DX2                !
 ! A92   A(31,32,58)           121.7055         estimate D2E/DX2                !
 ! A93   A(57,32,58)           118.218          estimate D2E/DX2                !
 ! A94   A(23,34,35)           115.7098         estimate D2E/DX2                !
 ! A95   A(23,34,59)           110.9004         estimate D2E/DX2                !
 ! A96   A(23,34,60)           104.323          estimate D2E/DX2                !
 ! A97   A(35,34,59)           110.3846         estimate D2E/DX2                !
 ! A98   A(35,34,60)           109.1892         estimate D2E/DX2                !
 ! A99   A(59,34,60)           105.6796         estimate D2E/DX2                !
 ! A100  A(34,35,36)           113.0467         estimate D2E/DX2                !
 ! A101  A(34,35,37)           106.9784         estimate D2E/DX2                !
 ! A102  A(34,35,61)           112.9808         estimate D2E/DX2                !
 ! A103  A(36,35,37)           107.2045         estimate D2E/DX2                !
 ! A104  A(36,35,61)           112.5336         estimate D2E/DX2                !
 ! A105  A(37,35,61)           103.2743         estimate D2E/DX2                !
 ! A106  A(35,36,38)           120.4856         estimate D2E/DX2                !
 ! A107  A(35,36,39)           117.9291         estimate D2E/DX2                !
 ! A108  A(38,36,39)           121.5796         estimate D2E/DX2                !
 ! A109  A(35,37,62)           110.4531         estimate D2E/DX2                !
 ! A110  A(35,37,63)           109.5801         estimate D2E/DX2                !
 ! A111  A(35,37,64)           109.9731         estimate D2E/DX2                !
 ! A112  A(62,37,63)           109.6643         estimate D2E/DX2                !
 ! A113  A(62,37,64)           108.9993         estimate D2E/DX2                !
 ! A114  A(63,37,64)           108.1317         estimate D2E/DX2                !
 ! A115  L(21,22,24,36,-1)     180.4978         estimate D2E/DX2                !
 ! A116  L(22,24,25,38,-1)     181.9388         estimate D2E/DX2                !
 ! A117  L(21,22,24,36,-2)     181.8559         estimate D2E/DX2                !
 ! A118  L(22,24,25,38,-2)     185.821          estimate D2E/DX2                !
 ! D1    D(5,1,2,3)            -15.6862         estimate D2E/DX2                !
 ! D2    D(5,1,2,16)          -141.1315         estimate D2E/DX2                !
 ! D3    D(5,1,2,40)            99.8306         estimate D2E/DX2                !
 ! D4    D(18,1,2,3)          -136.6662         estimate D2E/DX2                !
 ! D5    D(18,1,2,16)           97.8884         estimate D2E/DX2                !
 ! D6    D(18,1,2,40)          -21.1494         estimate D2E/DX2                !
 ! D7    D(20,1,2,3)            98.1985         estimate D2E/DX2                !
 ! D8    D(20,1,2,16)          -27.2468         estimate D2E/DX2                !
 ! D9    D(20,1,2,40)         -146.2846         estimate D2E/DX2                !
 ! D10   D(2,1,5,4)             34.0079         estimate D2E/DX2                !
 ! D11   D(18,1,5,4)           156.9018         estimate D2E/DX2                !
 ! D12   D(20,1,5,4)           -82.9662         estimate D2E/DX2                !
 ! D13   D(2,1,18,21)          -53.4552         estimate D2E/DX2                !
 ! D14   D(2,1,18,48)           68.8499         estimate D2E/DX2                !
 ! D15   D(2,1,18,49)         -177.669          estimate D2E/DX2                !
 ! D16   D(5,1,18,21)         -170.303          estimate D2E/DX2                !
 ! D17   D(5,1,18,48)          -47.998          estimate D2E/DX2                !
 ! D18   D(5,1,18,49)           65.4832         estimate D2E/DX2                !
 ! D19   D(20,1,18,21)          71.9171         estimate D2E/DX2                !
 ! D20   D(20,1,18,48)        -165.7778         estimate D2E/DX2                !
 ! D21   D(20,1,18,49)         -52.2967         estimate D2E/DX2                !
 ! D22   D(1,2,3,4)             -6.0118         estimate D2E/DX2                !
 ! D23   D(1,2,3,17)          -129.597          estimate D2E/DX2                !
 ! D24   D(1,2,3,41)           106.2572         estimate D2E/DX2                !
 ! D25   D(16,2,3,4)           115.6918         estimate D2E/DX2                !
 ! D26   D(16,2,3,17)           -7.8933         estimate D2E/DX2                !
 ! D27   D(16,2,3,41)         -132.0391         estimate D2E/DX2                !
 ! D28   D(40,2,3,4)          -123.8132         estimate D2E/DX2                !
 ! D29   D(40,2,3,17)          112.6017         estimate D2E/DX2                !
 ! D30   D(40,2,3,41)          -11.5441         estimate D2E/DX2                !
 ! D31   D(1,2,16,46)           62.0122         estimate D2E/DX2                !
 ! D32   D(3,2,16,46)          -57.894          estimate D2E/DX2                !
 ! D33   D(40,2,16,46)        -177.6698         estimate D2E/DX2                !
 ! D34   D(2,3,4,5)             26.545          estimate D2E/DX2                !
 ! D35   D(2,3,4,6)            151.6242         estimate D2E/DX2                !
 ! D36   D(2,3,4,19)           -87.739          estimate D2E/DX2                !
 ! D37   D(17,3,4,5)           153.548          estimate D2E/DX2                !
 ! D38   D(17,3,4,6)           -81.3728         estimate D2E/DX2                !
 ! D39   D(17,3,4,19)           39.264          estimate D2E/DX2                !
 ! D40   D(41,3,4,5)           -86.8406         estimate D2E/DX2                !
 ! D41   D(41,3,4,6)            38.2386         estimate D2E/DX2                !
 ! D42   D(41,3,4,19)          158.8754         estimate D2E/DX2                !
 ! D43   D(2,3,17,47)           66.7253         estimate D2E/DX2                !
 ! D44   D(4,3,17,47)          -51.245          estimate D2E/DX2                !
 ! D45   D(41,3,17,47)        -169.5247         estimate D2E/DX2                !
 ! D46   D(3,4,5,1)            -39.1942         estimate D2E/DX2                !
 ! D47   D(6,4,5,1)           -167.7263         estimate D2E/DX2                !
 ! D48   D(19,4,5,1)            77.622          estimate D2E/DX2                !
 ! D49   D(3,4,6,7)            140.9538         estimate D2E/DX2                !
 ! D50   D(3,4,6,10)           -37.3136         estimate D2E/DX2                !
 ! D51   D(5,4,6,7)            -96.5714         estimate D2E/DX2                !
 ! D52   D(5,4,6,10)            85.1612         estimate D2E/DX2                !
 ! D53   D(19,4,6,7)            18.2377         estimate D2E/DX2                !
 ! D54   D(19,4,6,10)         -160.0298         estimate D2E/DX2                !
 ! D55   D(4,6,7,8)           -179.5015         estimate D2E/DX2                !
 ! D56   D(4,6,7,11)             0.3817         estimate D2E/DX2                !
 ! D57   D(10,6,7,8)            -0.9046         estimate D2E/DX2                !
 ! D58   D(10,6,7,11)          178.9786         estimate D2E/DX2                !
 ! D59   D(4,6,10,9)           178.583          estimate D2E/DX2                !
 ! D60   D(4,6,10,42)           -1.3988         estimate D2E/DX2                !
 ! D61   D(7,6,10,9)             0.0445         estimate D2E/DX2                !
 ! D62   D(7,6,10,42)         -179.9373         estimate D2E/DX2                !
 ! D63   D(6,7,8,9)              1.5005         estimate D2E/DX2                !
 ! D64   D(6,7,8,14)          -179.0608         estimate D2E/DX2                !
 ! D65   D(11,7,8,9)          -178.3873         estimate D2E/DX2                !
 ! D66   D(11,7,8,14)            1.0514         estimate D2E/DX2                !
 ! D67   D(6,7,11,12)          177.3061         estimate D2E/DX2                !
 ! D68   D(8,7,11,12)           -2.8331         estimate D2E/DX2                !
 ! D69   D(7,8,9,10)            -1.4472         estimate D2E/DX2                !
 ! D70   D(14,8,9,10)          179.2218         estimate D2E/DX2                !
 ! D71   D(7,8,14,13)            1.6587         estimate D2E/DX2                !
 ! D72   D(7,8,14,15)         -177.7319         estimate D2E/DX2                !
 ! D73   D(9,8,14,13)         -179.041          estimate D2E/DX2                !
 ! D74   D(9,8,14,15)            1.5684         estimate D2E/DX2                !
 ! D75   D(8,9,10,6)             0.8583         estimate D2E/DX2                !
 ! D76   D(8,9,10,42)         -179.1606         estimate D2E/DX2                !
 ! D77   D(7,11,12,13)           2.2675         estimate D2E/DX2                !
 ! D78   D(7,11,12,43)        -178.6738         estimate D2E/DX2                !
 ! D79   D(11,12,13,14)          0.1818         estimate D2E/DX2                !
 ! D80   D(43,12,13,14)       -178.8754         estimate D2E/DX2                !
 ! D81   D(12,13,14,8)          -2.2279         estimate D2E/DX2                !
 ! D82   D(12,13,14,15)        177.1859         estimate D2E/DX2                !
 ! D83   D(8,14,15,44)         164.9027         estimate D2E/DX2                !
 ! D84   D(8,14,15,45)           5.4545         estimate D2E/DX2                !
 ! D85   D(13,14,15,44)        -14.4866         estimate D2E/DX2                !
 ! D86   D(13,14,15,45)       -173.9349         estimate D2E/DX2                !
 ! D87   D(1,18,21,22)         174.7965         estimate D2E/DX2                !
 ! D88   D(1,18,21,23)         -56.9332         estimate D2E/DX2                !
 ! D89   D(1,18,21,50)          63.2292         estimate D2E/DX2                !
 ! D90   D(48,18,21,22)         53.0899         estimate D2E/DX2                !
 ! D91   D(48,18,21,23)       -178.6398         estimate D2E/DX2                !
 ! D92   D(48,18,21,50)        -58.4775         estimate D2E/DX2                !
 ! D93   D(49,18,21,22)        -61.9457         estimate D2E/DX2                !
 ! D94   D(49,18,21,23)         66.3245         estimate D2E/DX2                !
 ! D95   D(49,18,21,50)       -173.5131         estimate D2E/DX2                !
 ! D96   D(18,21,25,26)        175.0431         estimate D2E/DX2                !
 ! D97   D(18,21,25,30)         -6.8876         estimate D2E/DX2                !
 ! D98   D(23,21,25,26)         45.669          estimate D2E/DX2                !
 ! D99   D(23,21,25,30)       -136.2617         estimate D2E/DX2                !
 ! D100  D(50,21,25,26)        -70.1399         estimate D2E/DX2                !
 ! D101  D(50,21,25,30)        107.9294         estimate D2E/DX2                !
 ! D102  D(18,21,23,34)        -46.1113         estimate D2E/DX2                !
 ! D103  D(18,21,23,51)         75.0999         estimate D2E/DX2                !
 ! D104  D(18,21,23,52)       -172.2272         estimate D2E/DX2                !
 ! D105  D(22,21,23,34)         81.3817         estimate D2E/DX2                !
 ! D106  D(22,21,23,51)       -157.4071         estimate D2E/DX2                !
 ! D107  D(22,21,23,52)        -44.7343         estimate D2E/DX2                !
 ! D108  D(50,21,23,34)       -167.2544         estimate D2E/DX2                !
 ! D109  D(50,21,23,51)        -46.0432         estimate D2E/DX2                !
 ! D110  D(50,21,23,52)         66.6296         estimate D2E/DX2                !
 ! D111  D(21,23,34,35)       -163.2964         estimate D2E/DX2                !
 ! D112  D(21,23,34,59)        -36.5923         estimate D2E/DX2                !
 ! D113  D(21,23,34,60)         76.7407         estimate D2E/DX2                !
 ! D114  D(51,23,34,35)         74.0169         estimate D2E/DX2                !
 ! D115  D(51,23,34,59)       -159.2791         estimate D2E/DX2                !
 ! D116  D(51,23,34,60)        -45.946          estimate D2E/DX2                !
 ! D117  D(52,23,34,35)        -37.7498         estimate D2E/DX2                !
 ! D118  D(52,23,34,59)         88.9543         estimate D2E/DX2                !
 ! D119  D(52,23,34,60)       -157.7126         estimate D2E/DX2                !
 ! D120  D(24,25,26,27)        177.7247         estimate D2E/DX2                !
 ! D121  D(24,25,26,53)         -2.1433         estimate D2E/DX2                !
 ! D122  D(30,25,26,27)         -0.0286         estimate D2E/DX2                !
 ! D123  D(30,25,26,53)       -179.8966         estimate D2E/DX2                !
 ! D124  D(24,25,30,29)       -177.2645         estimate D2E/DX2                !
 ! D125  D(24,25,30,56)          1.1052         estimate D2E/DX2                !
 ! D126  D(26,25,30,29)          0.5754         estimate D2E/DX2                !
 ! D127  D(26,25,30,56)        178.9452         estimate D2E/DX2                !
 ! D128  D(25,26,27,28)         -0.7786         estimate D2E/DX2                !
 ! D129  D(25,26,27,54)        179.9281         estimate D2E/DX2                !
 ! D130  D(53,26,27,28)        179.09           estimate D2E/DX2                !
 ! D131  D(53,26,27,54)         -0.2033         estimate D2E/DX2                !
 ! D132  D(26,27,28,29)          1.04           estimate D2E/DX2                !
 ! D133  D(26,27,28,55)       -178.7865         estimate D2E/DX2                !
 ! D134  D(54,27,28,29)       -179.6684         estimate D2E/DX2                !
 ! D135  D(54,27,28,55)          0.5051         estimate D2E/DX2                !
 ! D136  D(27,28,29,30)         -0.4914         estimate D2E/DX2                !
 ! D137  D(27,28,29,31)       -178.2993         estimate D2E/DX2                !
 ! D138  D(55,28,29,30)        179.3329         estimate D2E/DX2                !
 ! D139  D(55,28,29,31)          1.525          estimate D2E/DX2                !
 ! D140  D(28,29,30,25)         -0.3123         estimate D2E/DX2                !
 ! D141  D(28,29,30,56)       -178.6671         estimate D2E/DX2                !
 ! D142  D(31,29,30,25)        177.5495         estimate D2E/DX2                !
 ! D143  D(31,29,30,56)         -0.8052         estimate D2E/DX2                !
 ! D144  D(28,29,31,32)       -133.3536         estimate D2E/DX2                !
 ! D145  D(28,29,31,33)         50.2319         estimate D2E/DX2                !
 ! D146  D(30,29,31,32)         48.8241         estimate D2E/DX2                !
 ! D147  D(30,29,31,33)       -127.5904         estimate D2E/DX2                !
 ! D148  D(29,31,32,57)       -175.0069         estimate D2E/DX2                !
 ! D149  D(29,31,32,58)         16.1766         estimate D2E/DX2                !
 ! D150  D(33,31,32,57)          1.3827         estimate D2E/DX2                !
 ! D151  D(33,31,32,58)       -167.4339         estimate D2E/DX2                !
 ! D152  D(23,34,35,36)         86.6972         estimate D2E/DX2                !
 ! D153  D(23,34,35,37)       -155.5291         estimate D2E/DX2                !
 ! D154  D(23,34,35,61)        -42.5589         estimate D2E/DX2                !
 ! D155  D(59,34,35,36)        -40.2664         estimate D2E/DX2                !
 ! D156  D(59,34,35,37)         77.5073         estimate D2E/DX2                !
 ! D157  D(59,34,35,61)       -169.5224         estimate D2E/DX2                !
 ! D158  D(60,34,35,36)       -156.0261         estimate D2E/DX2                !
 ! D159  D(60,34,35,37)        -38.2524         estimate D2E/DX2                !
 ! D160  D(60,34,35,61)         74.7179         estimate D2E/DX2                !
 ! D161  D(34,35,36,38)         95.8828         estimate D2E/DX2                !
 ! D162  D(34,35,36,39)        -83.2569         estimate D2E/DX2                !
 ! D163  D(37,35,36,38)        -21.7586         estimate D2E/DX2                !
 ! D164  D(37,35,36,39)        159.1017         estimate D2E/DX2                !
 ! D165  D(61,35,36,38)       -134.6326         estimate D2E/DX2                !
 ! D166  D(61,35,36,39)         46.2277         estimate D2E/DX2                !
 ! D167  D(34,35,37,62)        179.0428         estimate D2E/DX2                !
 ! D168  D(34,35,37,63)        -60.0366         estimate D2E/DX2                !
 ! D169  D(34,35,37,64)         58.6954         estimate D2E/DX2                !
 ! D170  D(36,35,37,62)        -59.4212         estimate D2E/DX2                !
 ! D171  D(36,35,37,63)         61.4993         estimate D2E/DX2                !
 ! D172  D(36,35,37,64)       -179.7686         estimate D2E/DX2                !
 ! D173  D(61,35,37,62)         59.6068         estimate D2E/DX2                !
 ! D174  D(61,35,37,63)       -179.4726         estimate D2E/DX2                !
 ! D175  D(61,35,37,64)        -60.7406         estimate D2E/DX2                !
 --------------------------------------------------------------------------------
 Trust Radius=3.00D-01 FncErr=1.00D-07 GrdErr=1.00D-06 EigMax=2.50D+02 EigMin=1.00D-04
 Number of steps in this run=    370 maximum allowed number of steps=    384.
 GradGradGradGradGradGradGradGradGradGradGradGradGradGradGradGradGradGrad

 Leave Link  103 at Wed Feb 28 16:08:41 2018, MaxMem=   402653184 cpu:               0.1 elap:               0.0
 (Enter /n/sw/g16_nehalem/g16/l202.exe)
 Stoichiometry    C24H27N7O6
 Framework group  C1[X(C24H27N7O6)]
 Deg. of freedom   186
 Full point group                 C1      NOp   1
 Largest Abelian subgroup         C1      NOp   1
 Largest concise Abelian subgroup C1      NOp   1
                         Standard orientation:                         
 ---------------------------------------------------------------------
 Center     Atomic      Atomic             Coordinates (Angstroms)
 Number     Number       Type             X           Y           Z
 ---------------------------------------------------------------------
      1          6           0       -1.132096    0.929469    0.651644
      2          6           0       -1.527182    1.113062    2.120839
      3          6           0       -2.978652    0.641772    2.235780
      4          6           0       -3.335149    0.372474    0.779161
      5          8           0       -2.137685    0.071513    0.134564
      6          7           0       -4.387382   -0.684770    0.510235
      7          6           0       -5.360009   -0.615149   -0.446920
      8          6           0       -6.083236   -1.786217   -0.313232
      9          7           0       -5.613670   -2.537463    0.695213
     10          6           0       -4.595542   -1.853783    1.155398
     11          7           0       -5.599898    0.369141   -1.348315
     12          6           0       -6.614404    0.050237   -2.167250
     13          7           0       -7.391212   -1.041913   -2.163099
     14          6           0       -7.156392   -1.984301   -1.210901
     15          7           0       -7.988321   -3.098879   -1.150058
     16          8           0       -1.288269    2.448650    2.511105
     17          8           0       -3.902893    1.504722    2.870906
     18          6           0        0.266692    0.324631    0.452417
     19          1           0       -3.707792    1.289312    0.313120
     20          1           0       -1.219504    1.871385    0.106252
     21          6           0        1.411816    1.077261    1.195276
     22          6           0        2.680602    0.351893    1.042224
     23          6           0        1.563915    2.587910    0.853840
     24          6           0        3.714783   -0.273434    0.888540
     25          6           0        4.859530   -1.118066    0.637878
     26          6           0        6.143037   -0.756122    1.051667
     27          6           0        7.207466   -1.630416    0.826679
     28          6           0        6.987231   -2.864466    0.207227
     29          6           0        5.696733   -3.216073   -0.209091
     30          6           0        4.639284   -2.334986    0.007557
     31          6           0        5.416973   -4.537976   -0.838879
     32          7           0        4.677353   -4.519816   -1.942696
     33          8           0        5.792560   -5.581310   -0.325798
     34          6           0        1.517572    2.911639   -0.649583
     35          6           0        2.057804    4.307267   -1.053943
     36          6           0        3.592467    4.319436   -1.292646
     37          7           0        1.387980    4.679027   -2.385272
     38          8           0        4.055593    4.194334   -2.446535
     39          8           0        4.336786    4.440606   -0.300076
     40          1           0       -0.929203    0.458526    2.758929
     41          1           0       -2.985121   -0.319049    2.742529
     42          1           0       -3.959666   -2.164123    1.972856
     43          1           0       -6.844624    0.783437   -2.926695
     44          1           0       -8.874179   -3.091124   -1.654276
     45          1           0       -7.850598   -3.733677   -0.377706
     46          1           0       -1.845742    3.015555    1.969715
     47          1           0       -4.044572    2.311517    2.350318
     48          1           0        0.240412   -0.714944    0.787378
     49          1           0        0.475714    0.270637   -0.617221
     50          1           0        1.231664    1.013133    2.269042
     51          1           0        0.774787    3.161930    1.335210
     52          1           0        2.464396    2.984597    1.312502
     53          1           0        6.314535    0.191534    1.544412
     54          1           0        8.202424   -1.355607    1.143329
     55          1           0        7.817967   -3.539235    0.057505
     56          1           0        3.632883   -2.604901   -0.290586
     57          1           0        4.398395   -5.393158   -2.361220
     58          1           0        4.525144   -3.665801   -2.468416
     59          1           0        2.010821    2.128439   -1.232848
     60          1           0        0.459299    2.848496   -0.906744
     61          1           0        1.732917    5.102063   -0.379262
     62          1           0        1.693657    5.594140   -2.691648
     63          1           0        1.622965    3.987805   -3.088430
     64          1           0        0.380872    4.687333   -2.275510
 ---------------------------------------------------------------------
 Rotational constants (GHZ):           0.1068855           0.0419433           0.0342903
 Leave Link  202 at Wed Feb 28 16:08:41 2018, MaxMem=   402653184 cpu:               0.1 elap:               0.0
 (Enter /n/sw/g16_nehalem/g16/l301.exe)
 Standard basis: 6-31G (6D, 7F)
 Ernie: Thresh=  0.10000D-02 Tol=  0.10000D-05 Strict=F.
 There are   387 symmetry adapted cartesian basis functions of A   symmetry.
 There are   387 symmetry adapted basis functions of A   symmetry.
   387 basis functions,   922 primitive gaussians,   387 cartesian basis functions
   134 alpha electrons      134 beta electrons
       nuclear repulsion energy      3760.0225253912 Hartrees.
 IExCor=  402 DFT=T Ex+Corr=B3LYP ExCW=0 ScaHFX=  0.200000
 ScaDFX=  0.800000  0.720000  1.000000  0.810000 ScalE2=  1.000000  1.000000
 IRadAn=      5 IRanWt=     -1 IRanGd=            0 ICorTp=0 IEmpDi=141
 NAtoms=   64 NActive=   64 NUniq=   64 SFac= 1.00D+00 NAtFMM=   60 NAOKFM=T Big=T
 Integral buffers will be    131072 words long.
 Raffenetti 2 integral format.
 Two-electron integral symmetry is turned on.
 R6Disp:  Grimme-D3(BJ) Dispersion energy=       -0.1350427561 Hartrees.
 Nuclear repulsion after empirical dispersion term =     3759.8874826351 Hartrees.
 ------------------------------------------------------------------------------
 Polarizable Continuum Model (PCM)
 =================================
 Model                : PCM.
 Atomic radii         : UFF (Universal Force Field).
 Polarization charges : Total charges.
 Charge compensation  : None.
 Solution method      : On-the-fly selection.
 Cavity type          : Scaled VdW (van der Waals Surface) (Alpha=1.100).
 Cavity algorithm     : GePol (No added spheres)
                        Default sphere list used, NSphG=   64.
                        Lebedev-Laikov grids with approx.  5.0 points / Ang**2.
                        Smoothing algorithm: York/Karplus (Gamma=1.0000).
                        Polarization charges: spherical gaussians, with
                                              point-specific exponents (IZeta= 3).
                        Self-potential: point-specific (ISelfS= 7).
                        Self-field    : sphere-specific E.n sum rule (ISelfD= 2).
 1st derivatives      : Analytical E(r).r(x)/FMM algorithm (CHGder, D1EAlg=3).
                        Cavity 1st derivative terms included.
 Solvent              : Water, Eps=  78.355300 Eps(inf)=   1.777849
 ------------------------------------------------------------------------------
 GePol: Number of generator spheres                  =      64
 GePol: Total number of spheres                      =      64
 GePol: Number of exposed spheres                    =      64 (100.00%)
 GePol: Number of points                             =    4696
 GePol: Average weight of points                     =       0.13
 GePol: Minimum weight of points                     =   0.11D-11
 GePol: Maximum weight of points                     =    0.20577
 GePol: Number of points with low weight             =     320
 GePol: Fraction of low-weight points (<1% of avg)   =       6.81%
 GePol: Cavity surface area                          =    609.067 Ang**2
 GePol: Cavity volume                                =    671.375 Ang**3
 Leave Link  301 at Wed Feb 28 16:08:41 2018, MaxMem=   402653184 cpu:               0.4 elap:               0.1
 (Enter /n/sw/g16_nehalem/g16/l302.exe)
 NPDir=0 NMtPBC=     1 NCelOv=     1 NCel=       1 NClECP=     1 NCelD=      1
         NCelK=      1 NCelE2=     1 NClLst=     1 CellRange=     0.0.
 One-electron integrals computed using PRISM.
 One-electron integral symmetry used in STVInt
 NBasis=   387 RedAO= T EigKep=  1.76D-04  NBF=   387
 NBsUse=   387 1.00D-06 EigRej= -1.00D+00 NBFU=   387
 Precomputing XC quadrature grid using
 IXCGrd= 4 IRadAn=           5 IRanWt=          -1 IRanGd=           0 AccXCQ= 0.00D+00.
 Generated NRdTot=       0 NPtTot=           0 NUsed=           0 NTot=          32
 NSgBfM=   371   370   370   370   371 MxSgAt=    64 MxSgA2=    64.
 Leave Link  302 at Wed Feb 28 16:08:43 2018, MaxMem=   402653184 cpu:               7.0 elap:               1.8
 (Enter /n/sw/g16_nehalem/g16/l303.exe)
 DipDrv:  MaxL=1.
 Leave Link  303 at Wed Feb 28 16:08:44 2018, MaxMem=   402653184 cpu:               0.3 elap:               0.1
 (Enter /n/sw/g16_nehalem/g16/l401.exe)
 ExpMin= 1.61D-01 ExpMax= 5.48D+03 ExpMxC= 8.25D+02 IAcc=3 IRadAn=         5 AccDes= 0.00D+00
 Harris functional with IExCor=  402 and IRadAn=       5 diagonalized for initial guess.
 HarFok:  IExCor=  402 AccDes= 0.00D+00 IRadAn=         5 IDoV= 1 UseB2=F ITyADJ=14
 ICtDFT=  3500011 ScaDFX=  1.000000  1.000000  1.000000  1.000000
 FoFCou: FMM=F IPFlag=           0 FMFlag=      100000 FMFlg1=        2001
         NFxFlg=           0 DoJE=T BraDBF=F KetDBF=T FulRan=T
         wScrn=  0.000000 ICntrl=       500 IOpCl=  0 I1Cent=   200000004 NGrid=           0
         NMat0=    1 NMatS0=      1 NMatT0=    0 NMatD0=    1 NMtDS0=    0 NMtDT0=    0
 Petite list used in FoFCou.
 Harris En= -1764.93609753785    
 JPrj=0 DoOrth=F DoCkMO=F.
 Leave Link  401 at Wed Feb 28 16:08:54 2018, MaxMem=   402653184 cpu:              39.3 elap:               9.9
 (Enter /n/sw/g16_nehalem/g16/l502.exe)
 Integral symmetry usage will be decided dynamically.
 Closed shell SCF:
 Using DIIS extrapolation, IDIIS=  1040.
 NGot=   402653184 LenX=   402346294 LenY=   402196084
 Requested convergence on RMS density matrix=1.00D-08 within 128 cycles.
 Requested convergence on MAX density matrix=1.00D-06.
 Requested convergence on             energy=1.00D-06.
 No special actions if energy rises.
 Fock matrices will be formed incrementally for  20 cycles.

 Cycle   1  Pass 1  IDiag  1:
 FoFJK:  IHMeth= 1 ICntrl=       0 DoSepK=F KAlg= 0 I1Cent=           0 FoldK=F
 IRaf= 850000000 NMat=       1 IRICut=       1 DoRegI=T DoRafI=F ISym2E= 0 IDoP0=0 IntGTp=1.
 FoFCou: FMM=T IPFlag=           0 FMFlag=      100000 FMFlg1=        2001
         NFxFlg=           0 DoJE=F BraDBF=F KetDBF=F FulRan=T
         wScrn=  0.000000 ICntrl=         0 IOpCl=  0 I1Cent=           0 NGrid=           0
         NMat0=    1 NMatS0=      1 NMatT0=    0 NMatD0=    1 NMtDS0=    0 NMtDT0=    0
 Symmetry not used in FoFCou.
 FMM levels:  10  Number of levels for PrismC:   9
 Inv3:  Mode=1 IEnd=    66157248.
 Iteration    1 A*A^-1 deviation from unit magnitude is 5.11D-15 for   4689.
 Iteration    1 A*A^-1 deviation from orthogonality  is 3.90D-15 for   4666   2622.
 Iteration    1 A^-1*A deviation from unit magnitude is 5.11D-15 for   4689.
 Iteration    1 A^-1*A deviation from orthogonality  is 4.56D-14 for   3490   3469.
 E= -1764.21294037608    
 DIIS: error= 5.90D-02 at cycle   1 NSaved=   1.
 NSaved= 1 IEnMin= 1 EnMin= -1764.21294037608     IErMin= 1 ErrMin= 5.90D-02
 ErrMax= 5.90D-02  0.00D+00 EMaxC= 1.00D-01 BMatC= 8.28D-01 BMatP= 8.28D-01
 IDIUse=3 WtCom= 4.10D-01 WtEn= 5.90D-01
 Coeff-Com:  0.100D+01
 Coeff-En:   0.100D+01
 Coeff:      0.100D+01
 Gap=     0.215 Goal=   None    Shift=    0.000
 GapD=    0.215 DampG=1.000 DampE=0.500 DampFc=0.5000 IDamp=-1.
 Damping current iteration by 5.00D-01
 RMSDP=6.97D-03 MaxDP=4.63D-01              OVMax= 2.43D-01

 Cycle   2  Pass 1  IDiag  1:
 RMSU=  3.48D-03    CP:  9.94D-01
 E= -1764.48039719316     Delta-E=       -0.267456817077 Rises=F Damp=T
 DIIS: error= 1.96D-02 at cycle   2 NSaved=   2.
 NSaved= 2 IEnMin= 2 EnMin= -1764.48039719316     IErMin= 2 ErrMin= 1.96D-02
 ErrMax= 1.96D-02  0.00D+00 EMaxC= 1.00D-01 BMatC= 8.20D-02 BMatP= 8.28D-01
 IDIUse=3 WtCom= 8.04D-01 WtEn= 1.96D-01
 Coeff-Com:  0.171D+00 0.829D+00
 Coeff-En:   0.258D+00 0.742D+00
 Coeff:      0.188D+00 0.812D+00
 Gap=     0.183 Goal=   None    Shift=    0.000
 RMSDP=1.77D-03 MaxDP=1.01D-01 DE=-2.67D-01 OVMax= 1.78D-01

 Cycle   3  Pass 1  IDiag  1:
 RMSU=  1.64D-03    CP:  9.85D-01  8.19D-01
 E= -1764.91880047415     Delta-E=       -0.438403280990 Rises=F Damp=F
 DIIS: error= 2.09D-02 at cycle   3 NSaved=   3.
 NSaved= 3 IEnMin= 3 EnMin= -1764.91880047415     IErMin= 2 ErrMin= 1.96D-02
 ErrMax= 2.09D-02  0.00D+00 EMaxC= 1.00D-01 BMatC= 5.06D-02 BMatP= 8.20D-02
 IDIUse=3 WtCom= 7.91D-01 WtEn= 2.09D-01
 Coeff-Com:  0.515D-01 0.440D+00 0.509D+00
 Coeff-En:   0.000D+00 0.000D+00 0.100D+01
 Coeff:      0.407D-01 0.348D+00 0.611D+00
 Gap=     0.201 Goal=   None    Shift=    0.000
 RMSDP=1.06D-03 MaxDP=5.24D-02 DE=-4.38D-01 OVMax= 7.86D-02

 Cycle   4  Pass 1  IDiag  1:
 RMSU=  7.74D-04    CP:  9.91D-01  9.20D-01  6.23D-01
 E= -1764.94929717606     Delta-E=       -0.030496701918 Rises=F Damp=F
 DIIS: error= 1.60D-02 at cycle   4 NSaved=   4.
 NSaved= 4 IEnMin= 4 EnMin= -1764.94929717606     IErMin= 4 ErrMin= 1.60D-02
 ErrMax= 1.60D-02  0.00D+00 EMaxC= 1.00D-01 BMatC= 2.02D-02 BMatP= 5.06D-02
 IDIUse=3 WtCom= 8.40D-01 WtEn= 1.60D-01
 Coeff-Com:  0.188D-01 0.124D+00 0.390D+00 0.467D+00
 Coeff-En:   0.000D+00 0.000D+00 0.290D+00 0.710D+00
 Coeff:      0.158D-01 0.104D+00 0.374D+00 0.506D+00
 Gap=     0.174 Goal=   None    Shift=    0.000
 RMSDP=4.86D-04 MaxDP=3.03D-02 DE=-3.05D-02 OVMax= 4.53D-02

 Cycle   5  Pass 1  IDiag  1:
 RMSU=  2.27D-04    CP:  9.90D-01  8.66D-01  7.53D-01  5.85D-01
 E= -1764.96489334882     Delta-E=       -0.015596172758 Rises=F Damp=F
 DIIS: error= 4.30D-03 at cycle   5 NSaved=   5.
 NSaved= 5 IEnMin= 5 EnMin= -1764.96489334882     IErMin= 5 ErrMin= 4.30D-03
 ErrMax= 4.30D-03  0.00D+00 EMaxC= 1.00D-01 BMatC= 1.66D-03 BMatP= 2.02D-02
 IDIUse=3 WtCom= 9.57D-01 WtEn= 4.30D-02
 Coeff-Com:  0.483D-02 0.109D-01 0.167D+00 0.325D+00 0.492D+00
 Coeff-En:   0.000D+00 0.000D+00 0.000D+00 0.258D-01 0.974D+00
 Coeff:      0.462D-02 0.104D-01 0.160D+00 0.312D+00 0.513D+00
 Gap=     0.177 Goal=   None    Shift=    0.000
 RMSDP=1.41D-04 MaxDP=8.37D-03 DE=-1.56D-02 OVMax= 1.45D-02

 Cycle   6  Pass 1  IDiag  1:
 RMSU=  7.56D-05    CP:  9.89D-01  8.73D-01  7.46D-01  6.27D-01  5.15D-01
 E= -1764.96623091027     Delta-E=       -0.001337561447 Rises=F Damp=F
 DIIS: error= 9.46D-04 at cycle   6 NSaved=   6.
 NSaved= 6 IEnMin= 6 EnMin= -1764.96623091027     IErMin= 6 ErrMin= 9.46D-04
 ErrMax= 9.46D-04  0.00D+00 EMaxC= 1.00D-01 BMatC= 8.96D-05 BMatP= 1.66D-03
 IDIUse=3 WtCom= 9.91D-01 WtEn= 9.46D-03
 Coeff-Com:  0.164D-02-0.143D-02 0.656D-01 0.141D+00 0.292D+00 0.501D+00
 Coeff-En:   0.000D+00 0.000D+00 0.000D+00 0.000D+00 0.000D+00 0.100D+01
 Coeff:      0.163D-02-0.142D-02 0.650D-01 0.139D+00 0.290D+00 0.506D+00
 Gap=     0.176 Goal=   None    Shift=    0.000
 RMSDP=3.25D-05 MaxDP=1.53D-03 DE=-1.34D-03 OVMax= 1.80D-03

 Cycle   7  Pass 1  IDiag  1:
 RMSU=  2.18D-05    CP:  9.89D-01  8.72D-01  7.49D-01  6.20D-01  5.63D-01
                    CP:  7.31D-01
 E= -1764.96630288960     Delta-E=       -0.000071979329 Rises=F Damp=F
 DIIS: error= 1.32D-04 at cycle   7 NSaved=   7.
 NSaved= 7 IEnMin= 7 EnMin= -1764.96630288960     IErMin= 7 ErrMin= 1.32D-04
 ErrMax= 1.32D-04  0.00D+00 EMaxC= 1.00D-01 BMatC= 6.24D-06 BMatP= 8.96D-05
 IDIUse=3 WtCom= 9.99D-01 WtEn= 1.32D-03
 Coeff-Com:  0.403D-03-0.184D-02 0.149D-01 0.341D-01 0.944D-01 0.275D+00
 Coeff-Com:  0.583D+00
 Coeff-En:   0.000D+00 0.000D+00 0.000D+00 0.000D+00 0.000D+00 0.000D+00
 Coeff-En:   0.100D+01
 Coeff:      0.402D-03-0.184D-02 0.148D-01 0.341D-01 0.943D-01 0.275D+00
 Coeff:      0.583D+00
 Gap=     0.177 Goal=   None    Shift=    0.000
 RMSDP=1.01D-05 MaxDP=4.45D-04 DE=-7.20D-05 OVMax= 6.91D-04

 Cycle   8  Pass 1  IDiag  1:
 RMSU=  7.05D-06    CP:  9.89D-01  8.72D-01  7.49D-01  6.22D-01  5.63D-01
                    CP:  7.37D-01  6.83D-01
 E= -1764.96630725497     Delta-E=       -0.000004365369 Rises=F Damp=F
 DIIS: error= 6.93D-05 at cycle   8 NSaved=   8.
 NSaved= 8 IEnMin= 8 EnMin= -1764.96630725497     IErMin= 8 ErrMin= 6.93D-05
 ErrMax= 6.93D-05  0.00D+00 EMaxC= 1.00D-01 BMatC= 1.53D-06 BMatP= 6.24D-06
 IDIUse=1 WtCom= 1.00D+00 WtEn= 0.00D+00
 Coeff-Com:  0.107D-03-0.104D-02 0.235D-02 0.611D-02 0.294D-01 0.128D+00
 Coeff-Com:  0.392D+00 0.442D+00
 Coeff:      0.107D-03-0.104D-02 0.235D-02 0.611D-02 0.294D-01 0.128D+00
 Coeff:      0.392D+00 0.442D+00
 Gap=     0.177 Goal=   None    Shift=    0.000
 RMSDP=4.32D-06 MaxDP=2.58D-04 DE=-4.37D-06 OVMax= 3.23D-04

 Cycle   9  Pass 1  IDiag  1:
 RMSU=  2.33D-06    CP:  9.89D-01  8.72D-01  7.49D-01  6.23D-01  5.65D-01
                    CP:  7.33D-01  7.06D-01  5.09D-01
 E= -1764.96630870756     Delta-E=       -0.000001452592 Rises=F Damp=F
 DIIS: error= 1.45D-05 at cycle   9 NSaved=   9.
 NSaved= 9 IEnMin= 9 EnMin= -1764.96630870756     IErMin= 9 ErrMin= 1.45D-05
 ErrMax= 1.45D-05  0.00D+00 EMaxC= 1.00D-01 BMatC= 7.73D-08 BMatP= 1.53D-06
 IDIUse=1 WtCom= 1.00D+00 WtEn= 0.00D+00
 Coeff-Com:  0.448D-04-0.482D-03 0.469D-03 0.132D-02 0.111D-01 0.571D-01
 Coeff-Com:  0.189D+00 0.257D+00 0.484D+00
 Coeff:      0.448D-04-0.482D-03 0.469D-03 0.132D-02 0.111D-01 0.571D-01
 Coeff:      0.189D+00 0.257D+00 0.484D+00
 Gap=     0.177 Goal=   None    Shift=    0.000
 RMSDP=1.05D-06 MaxDP=4.94D-05 DE=-1.45D-06 OVMax= 7.89D-05

 Cycle  10  Pass 1  IDiag  1:
 RMSU=  7.33D-07    CP:  9.89D-01  8.72D-01  7.49D-01  6.23D-01  5.65D-01
                    CP:  7.37D-01  7.04D-01  5.44D-01  7.44D-01
 E= -1764.96630877286     Delta-E=       -0.000000065305 Rises=F Damp=F
 DIIS: error= 5.04D-06 at cycle  10 NSaved=  10.
 NSaved=10 IEnMin=10 EnMin= -1764.96630877286     IErMin=10 ErrMin= 5.04D-06
 ErrMax= 5.04D-06  0.00D+00 EMaxC= 1.00D-01 BMatC= 7.96D-09 BMatP= 7.73D-08
 IDIUse=1 WtCom= 1.00D+00 WtEn= 0.00D+00
 Coeff-Com:  0.861D-05-0.925D-04-0.107D-03-0.320D-03 0.118D-02 0.947D-02
 Coeff-Com:  0.353D-01 0.642D-01 0.267D+00 0.624D+00
 Coeff:      0.861D-05-0.925D-04-0.107D-03-0.320D-03 0.118D-02 0.947D-02
 Coeff:      0.353D-01 0.642D-01 0.267D+00 0.624D+00
 Gap=     0.177 Goal=   None    Shift=    0.000
 RMSDP=3.64D-07 MaxDP=1.49D-05 DE=-6.53D-08 OVMax= 2.18D-05

 Cycle  11  Pass 1  IDiag  1:
 RMSU=  2.50D-07    CP:  9.89D-01  8.72D-01  7.49D-01  6.23D-01  5.65D-01
                    CP:  7.38D-01  7.07D-01  5.47D-01  7.81D-01  7.21D-01
 E= -1764.96630877945     Delta-E=       -0.000000006584 Rises=F Damp=F
 DIIS: error= 2.39D-06 at cycle  11 NSaved=  11.
 NSaved=11 IEnMin=11 EnMin= -1764.96630877945     IErMin=11 ErrMin= 2.39D-06
 ErrMax= 2.39D-06  0.00D+00 EMaxC= 1.00D-01 BMatC= 1.49D-09 BMatP= 7.96D-09
 IDIUse=1 WtCom= 1.00D+00 WtEn= 0.00D+00
 Coeff-Com: -0.291D-07 0.177D-05-0.137D-03-0.403D-03-0.651D-03-0.965D-03
 Coeff-Com: -0.273D-03 0.106D-01 0.112D+00 0.388D+00 0.493D+00
 Coeff:     -0.291D-07 0.177D-05-0.137D-03-0.403D-03-0.651D-03-0.965D-03
 Coeff:     -0.273D-03 0.106D-01 0.112D+00 0.388D+00 0.493D+00
 Gap=     0.177 Goal=   None    Shift=    0.000
 RMSDP=1.42D-07 MaxDP=5.32D-06 DE=-6.58D-09 OVMax= 9.72D-06

 Cycle  12  Pass 1  IDiag  1:
 RMSU=  1.01D-07    CP:  9.89D-01  8.72D-01  7.49D-01  6.23D-01  5.66D-01
                    CP:  7.38D-01  7.07D-01  5.48D-01  7.78D-01  7.86D-01
                    CP:  6.78D-01
 E= -1764.96630878072     Delta-E=       -0.000000001272 Rises=F Damp=F
 DIIS: error= 4.42D-07 at cycle  12 NSaved=  12.
 NSaved=12 IEnMin=12 EnMin= -1764.96630878072     IErMin=12 ErrMin= 4.42D-07
 ErrMax= 4.42D-07  0.00D+00 EMaxC= 1.00D-01 BMatC= 8.79D-11 BMatP= 1.49D-09
 IDIUse=1 WtCom= 1.00D+00 WtEn= 0.00D+00
 Coeff-Com: -0.932D-06 0.755D-05-0.543D-04-0.159D-03-0.396D-03-0.121D-02
 Coeff-Com: -0.310D-02-0.166D-03 0.292D-01 0.129D+00 0.257D+00 0.590D+00
 Coeff:     -0.932D-06 0.755D-05-0.543D-04-0.159D-03-0.396D-03-0.121D-02
 Coeff:     -0.310D-02-0.166D-03 0.292D-01 0.129D+00 0.257D+00 0.590D+00
 Gap=     0.177 Goal=   None    Shift=    0.000
 RMSDP=3.75D-08 MaxDP=1.50D-06 DE=-1.27D-09 OVMax= 2.59D-06

 Cycle  13  Pass 1  IDiag  1:
 RMSU=  2.60D-08    CP:  9.89D-01  8.72D-01  7.49D-01  6.23D-01  5.65D-01
                    CP:  7.38D-01  7.07D-01  5.49D-01  7.84D-01  7.85D-01
                    CP:  6.92D-01  7.96D-01
 E= -1764.96630878096     Delta-E=       -0.000000000236 Rises=F Damp=F
 DIIS: error= 1.30D-07 at cycle  13 NSaved=  13.
 NSaved=13 IEnMin=13 EnMin= -1764.96630878096     IErMin=13 ErrMin= 1.30D-07
 ErrMax= 1.30D-07  0.00D+00 EMaxC= 1.00D-01 BMatC= 1.04D-11 BMatP= 8.79D-11
 IDIUse=1 WtCom= 1.00D+00 WtEn= 0.00D+00
 Coeff-Com: -0.583D-06 0.418D-05-0.132D-04-0.378D-04-0.146D-03-0.568D-03
 Coeff-Com: -0.178D-02-0.143D-02 0.195D-02 0.220D-01 0.835D-01 0.316D+00
 Coeff-Com:  0.581D+00
 Coeff:     -0.583D-06 0.418D-05-0.132D-04-0.378D-04-0.146D-03-0.568D-03
 Coeff:     -0.178D-02-0.143D-02 0.195D-02 0.220D-01 0.835D-01 0.316D+00
 Coeff:      0.581D+00
 Gap=     0.177 Goal=   None    Shift=    0.000
 RMSDP=1.23D-08 MaxDP=3.76D-07 DE=-2.36D-10 OVMax= 1.03D-06

 Cycle  14  Pass 1  IDiag  1:
 RMSU=  8.39D-09    CP:  9.89D-01  8.72D-01  7.49D-01  6.23D-01  5.65D-01
                    CP:  7.38D-01  7.07D-01  5.49D-01  7.85D-01  7.88D-01
                    CP:  7.00D-01  8.09D-01  7.31D-01
 E= -1764.96630878099     Delta-E=       -0.000000000034 Rises=F Damp=F
 DIIS: error= 9.77D-08 at cycle  14 NSaved=  14.
 NSaved=14 IEnMin=14 EnMin= -1764.96630878099     IErMin=14 ErrMin= 9.77D-08
 ErrMax= 9.77D-08  0.00D+00 EMaxC= 1.00D-01 BMatC= 1.20D-12 BMatP= 1.04D-11
 IDIUse=1 WtCom= 1.00D+00 WtEn= 0.00D+00
 Coeff-Com: -0.278D-06 0.169D-05-0.336D-05-0.885D-05-0.516D-04-0.221D-03
 Coeff-Com: -0.754D-03-0.772D-03-0.132D-02 0.187D-02 0.273D-01 0.132D+00
 Coeff-Com:  0.328D+00 0.513D+00
 Coeff:     -0.278D-06 0.169D-05-0.336D-05-0.885D-05-0.516D-04-0.221D-03
 Coeff:     -0.754D-03-0.772D-03-0.132D-02 0.187D-02 0.273D-01 0.132D+00
 Coeff:      0.328D+00 0.513D+00
 Gap=     0.177 Goal=   None    Shift=    0.000
 RMSDP=4.07D-09 MaxDP=2.29D-07 DE=-3.37D-11 OVMax= 4.44D-07

 Error on total polarization charges =  0.00939
 SCF Done:  E(RB3LYP) =  -1764.96630878     A.U. after   14 cycles
            NFock= 14  Conv=0.41D-08     -V/T= 2.0048
 KE= 1.756515326967D+03 PE=-1.163698598427D+04 EE= 4.355616865886D+03
 Leave Link  502 at Wed Feb 28 16:13:36 2018, MaxMem=   402653184 cpu:            1128.9 elap:             282.4
 (Enter /n/sw/g16_nehalem/g16/l601.exe)
 Copying SCF densities to generalized density rwf, IOpCl= 0 IROHF=0.

 **********************************************************************

            Population analysis using the SCF density.

 **********************************************************************

 Orbital symmetries:
       Occupied  (A) (A) (A) (A) (A) (A) (A) (A) (A) (A) (A) (A)
                 (A) (A) (A) (A) (A) (A) (A) (A) (A) (A) (A) (A)
                 (A) (A) (A) (A) (A) (A) (A) (A) (A) (A) (A) (A)
                 (A) (A) (A) (A) (A) (A) (A) (A) (A) (A) (A) (A)
                 (A) (A) (A) (A) (A) (A) (A) (A) (A) (A) (A) (A)
                 (A) (A) (A) (A) (A) (A) (A) (A) (A) (A) (A) (A)
                 (A) (A) (A) (A) (A) (A) (A) (A) (A) (A) (A) (A)
                 (A) (A) (A) (A) (A) (A) (A) (A) (A) (A) (A) (A)
                 (A) (A) (A) (A) (A) (A) (A) (A) (A) (A) (A) (A)
                 (A) (A) (A) (A) (A) (A) (A) (A) (A) (A) (A) (A)
                 (A) (A) (A) (A) (A) (A) (A) (A) (A) (A) (A) (A)
                 (A) (A)
       Virtual   (A) (A) (A) (A) (A) (A) (A) (A) (A) (A) (A) (A)
                 (A) (A) (A) (A) (A) (A) (A) (A) (A) (A) (A) (A)
                 (A) (A) (A) (A) (A) (A) (A) (A) (A) (A) (A) (A)
                 (A) (A) (A) (A) (A) (A) (A) (A) (A) (A) (A) (A)
                 (A) (A) (A) (A) (A) (A) (A) (A) (A) (A) (A) (A)
                 (A) (A) (A) (A) (A) (A) (A) (A) (A) (A) (A) (A)
                 (A) (A) (A) (A) (A) (A) (A) (A) (A) (A) (A) (A)
                 (A) (A) (A) (A) (A) (A) (A) (A) (A) (A) (A) (A)
                 (A) (A) (A) (A) (A) (A) (A) (A) (A) (A) (A) (A)
                 (A) (A) (A) (A) (A) (A) (A) (A) (A) (A) (A) (A)
                 (A) (A) (A) (A) (A) (A) (A) (A) (A) (A) (A) (A)
                 (A) (A) (A) (A) (A) (A) (A) (A) (A) (A) (A) (A)
                 (A) (A) (A) (A) (A) (A) (A) (A) (A) (A) (A) (A)
                 (A) (A) (A) (A) (A) (A) (A) (A) (A) (A) (A) (A)
                 (A) (A) (A) (A) (A) (A) (A) (A) (A) (A) (A) (A)
                 (A) (A) (A) (A) (A) (A) (A) (A) (A) (A) (A) (A)
                 (A) (A) (A) (A) (A) (A) (A) (A) (A) (A) (A) (A)
                 (A) (A) (A) (A) (A) (A) (A) (A) (A) (A) (A) (A)
                 (A) (A) (A) (A) (A) (A) (A) (A) (A) (A) (A) (A)
                 (A) (A) (A) (A) (A) (A) (A) (A) (A) (A) (A) (A)
                 (A) (A) (A) (A) (A) (A) (A) (A) (A) (A) (A) (A)
                 (A)
 The electronic state is 1-A.
 Alpha  occ. eigenvalues --  -19.17447 -19.17096 -19.16675 -19.11779 -19.07691
 Alpha  occ. eigenvalues --  -19.07098 -14.45081 -14.41847 -14.35765 -14.35484
 Alpha  occ. eigenvalues --  -14.34705 -14.34455 -14.34040 -10.30604 -10.29947
 Alpha  occ. eigenvalues --  -10.29146 -10.27052 -10.27045 -10.26807 -10.26252
 Alpha  occ. eigenvalues --  -10.25999 -10.25569 -10.25538 -10.25326 -10.22628
 Alpha  occ. eigenvalues --  -10.22453 -10.22264 -10.20801 -10.20244 -10.20148
 Alpha  occ. eigenvalues --  -10.20060 -10.20020 -10.19881 -10.19797 -10.19335
 Alpha  occ. eigenvalues --  -10.18953 -10.18805  -1.11123  -1.07672  -1.06810
 Alpha  occ. eigenvalues --   -1.06519  -1.05069  -1.04545  -1.00989  -1.00335
 Alpha  occ. eigenvalues --   -0.95041  -0.93584  -0.92325  -0.91875  -0.88091
 Alpha  occ. eigenvalues --   -0.88018  -0.84506  -0.80131  -0.79967  -0.79638
 Alpha  occ. eigenvalues --   -0.78629  -0.77530  -0.77097  -0.73022  -0.71139
 Alpha  occ. eigenvalues --   -0.68696  -0.67855  -0.66657  -0.65839  -0.65499
 Alpha  occ. eigenvalues --   -0.63573  -0.63052  -0.61359  -0.60731  -0.60150
 Alpha  occ. eigenvalues --   -0.59816  -0.58853  -0.57722  -0.56566  -0.56227
 Alpha  occ. eigenvalues --   -0.56127  -0.53313  -0.53103  -0.52650  -0.52335
 Alpha  occ. eigenvalues --   -0.51425  -0.51089  -0.49778  -0.49456  -0.48851
 Alpha  occ. eigenvalues --   -0.48429  -0.48247  -0.48009  -0.47510  -0.46806
 Alpha  occ. eigenvalues --   -0.46574  -0.45793  -0.45607  -0.44462  -0.44312
 Alpha  occ. eigenvalues --   -0.43853  -0.42425  -0.41827  -0.41533  -0.41499
 Alpha  occ. eigenvalues --   -0.41278  -0.40965  -0.40587  -0.39703  -0.39079
 Alpha  occ. eigenvalues --   -0.38858  -0.37857  -0.37380  -0.36991  -0.36833
 Alpha  occ. eigenvalues --   -0.36504  -0.36085  -0.35626  -0.35016  -0.34125
 Alpha  occ. eigenvalues --   -0.33461  -0.32069  -0.31260  -0.30857  -0.30273
 Alpha  occ. eigenvalues --   -0.29427  -0.28970  -0.28447  -0.27571  -0.27355
 Alpha  occ. eigenvalues --   -0.27259  -0.26938  -0.25858  -0.25514  -0.23835
 Alpha  occ. eigenvalues --   -0.23469  -0.23116  -0.23051  -0.21298
 Alpha virt. eigenvalues --   -0.03636  -0.03584  -0.02316  -0.00883   0.02193
 Alpha virt. eigenvalues --    0.02681   0.03589   0.03923   0.04638   0.05115
 Alpha virt. eigenvalues --    0.06684   0.07312   0.08280   0.08833   0.09023
 Alpha virt. eigenvalues --    0.09652   0.10113   0.10553   0.10858   0.11272
 Alpha virt. eigenvalues --    0.11771   0.12518   0.12576   0.13448   0.13974
 Alpha virt. eigenvalues --    0.14071   0.14292   0.14562   0.14971   0.15264
 Alpha virt. eigenvalues --    0.15544   0.15598   0.16042   0.16505   0.16658
 Alpha virt. eigenvalues --    0.17287   0.18031   0.18612   0.19081   0.19167
 Alpha virt. eigenvalues --    0.19756   0.19918   0.21128   0.21472   0.22833
 Alpha virt. eigenvalues --    0.23110   0.23474   0.24301   0.24835   0.25512
 Alpha virt. eigenvalues --    0.25873   0.26148   0.26313   0.26841   0.27778
 Alpha virt. eigenvalues --    0.28470   0.28762   0.29362   0.30390   0.30574
 Alpha virt. eigenvalues --    0.30864   0.31743   0.32710   0.33539   0.35043
 Alpha virt. eigenvalues --    0.35154   0.36042   0.36874   0.37168   0.37686
 Alpha virt. eigenvalues --    0.39397   0.40015   0.42877   0.44870   0.44961
 Alpha virt. eigenvalues --    0.46917   0.48288   0.49533   0.50137   0.51555
 Alpha virt. eigenvalues --    0.51812   0.52342   0.52694   0.53051   0.54639
 Alpha virt. eigenvalues --    0.55104   0.55523   0.56401   0.57182   0.57625
 Alpha virt. eigenvalues --    0.57895   0.58160   0.58475   0.58616   0.58849
 Alpha virt. eigenvalues --    0.59178   0.59612   0.60080   0.60248   0.60620
 Alpha virt. eigenvalues --    0.61162   0.61899   0.62212   0.62445   0.63021
 Alpha virt. eigenvalues --    0.63708   0.64093   0.64520   0.64694   0.64826
 Alpha virt. eigenvalues --    0.65452   0.65586   0.65903   0.66963   0.67017
 Alpha virt. eigenvalues --    0.67249   0.67755   0.68602   0.68733   0.68952
 Alpha virt. eigenvalues --    0.69610   0.69984   0.70812   0.71455   0.71841
 Alpha virt. eigenvalues --    0.72374   0.72746   0.73101   0.73918   0.74783
 Alpha virt. eigenvalues --    0.75198   0.75765   0.76700   0.76885   0.78153
 Alpha virt. eigenvalues --    0.78636   0.79097   0.79202   0.79529   0.79958
 Alpha virt. eigenvalues --    0.80038   0.80722   0.81771   0.81938   0.82277
 Alpha virt. eigenvalues --    0.82789   0.83649   0.84208   0.84512   0.85164
 Alpha virt. eigenvalues --    0.85352   0.85834   0.86062   0.86653   0.87394
 Alpha virt. eigenvalues --    0.87670   0.88083   0.88452   0.88652   0.88931
 Alpha virt. eigenvalues --    0.89805   0.90043   0.90369   0.90924   0.91129
 Alpha virt. eigenvalues --    0.91642   0.92190   0.92618   0.92950   0.93920
 Alpha virt. eigenvalues --    0.94145   0.94721   0.95485   0.95625   0.96118
 Alpha virt. eigenvalues --    0.96991   0.97552   0.98279   0.98816   1.00196
 Alpha virt. eigenvalues --    1.00416   1.00886   1.01717   1.02410   1.02869
 Alpha virt. eigenvalues --    1.03525   1.03796   1.03949   1.05526   1.06244
 Alpha virt. eigenvalues --    1.06401   1.07029   1.07864   1.08908   1.09500
 Alpha virt. eigenvalues --    1.09905   1.10336   1.11287   1.12716   1.13750
 Alpha virt. eigenvalues --    1.14184   1.15100   1.15752   1.16577   1.17616
 Alpha virt. eigenvalues --    1.17930   1.18984   1.19869   1.20857   1.22367
 Alpha virt. eigenvalues --    1.22563   1.22990   1.23859   1.24472   1.26584
 Alpha virt. eigenvalues --    1.27696   1.29295   1.31608   1.34192   1.35979
 Alpha virt. eigenvalues --    1.37355   1.38639   1.40164   1.40299   1.41812
 Alpha virt. eigenvalues --    1.43042   1.43950   1.45222   1.47176   1.47951
 Alpha virt. eigenvalues --    1.49180   1.52511   1.54676   1.56440   1.57651
 Alpha virt. eigenvalues --    1.63714   1.66268   1.69134   1.72627   1.74645
 Alpha virt. eigenvalues --    1.79820   1.81758   1.87889   1.89522   1.90863
 Alpha virt. eigenvalues --    1.92190   1.93769   1.97554   1.98558   2.02035
 Alpha virt. eigenvalues --    2.04278   2.14780   2.32142
          Condensed to atoms (all electrons):
 Mulliken charges:
               1
     1  C    0.118269
     2  C    0.035430
     3  C    0.059273
     4  C    0.272988
     5  O   -0.522289
     6  N   -0.678687
     7  C    0.435751
     8  C    0.072639
     9  N   -0.436364
    10  C    0.268346
    11  N   -0.378577
    12  C    0.099508
    13  N   -0.441072
    14  C    0.422265
    15  N   -0.741422
    16  O   -0.597149
    17  O   -0.606899
    18  C   -0.265567
    19  H    0.182791
    20  H    0.169358
    21  C   -0.125334
    22  C   -0.065976
    23  C   -0.256692
    24  C   -0.310993
    25  C    0.146107
    26  C   -0.099567
    27  C   -0.148240
    28  C   -0.129128
    29  C    0.012212
    30  C   -0.086024
    31  C    0.399798
    32  N   -0.697470
    33  O   -0.492674
    34  C   -0.262976
    35  C   -0.088236
    36  C    0.410419
    37  N   -0.692744
    38  O   -0.591148
    39  O   -0.585920
    40  H    0.195754
    41  H    0.198852
    42  H    0.211109
    43  H    0.160862
    44  H    0.350266
    45  H    0.352696
    46  H    0.376714
    47  H    0.387163
    48  H    0.163276
    49  H    0.163839
    50  H    0.189626
    51  H    0.164363
    52  H    0.155810
    53  H    0.162622
    54  H    0.153582
    55  H    0.158078
    56  H    0.168829
    57  H    0.349674
    58  H    0.357233
    59  H    0.166824
    60  H    0.159716
    61  H    0.205244
    62  H    0.421124
    63  H    0.408221
    64  H    0.414520
 Sum of Mulliken charges =   0.00000
 Mulliken charges with hydrogens summed into heavy atoms:
               1
     1  C    0.287627
     2  C    0.231184
     3  C    0.258125
     4  C    0.455779
     5  O   -0.522289
     6  N   -0.678687
     7  C    0.435751
     8  C    0.072639
     9  N   -0.436364
    10  C    0.479455
    11  N   -0.378577
    12  C    0.260371
    13  N   -0.441072
    14  C    0.422265
    15  N   -0.038460
    16  O   -0.220435
    17  O   -0.219736
    18  C    0.061548
    21  C    0.064292
    22  C   -0.065976
    23  C    0.063480
    24  C   -0.310993
    25  C    0.146107
[...]
 00001942,-0.00001039,-0.00000533,-0.00001380,-0.00001008,-0.00003789,-
 0.00007084,0.00017817,0.00000173,0.00001092,0.00000784,-0.00000316,-0.
 00000931,-0.00000450,0.00000481,-0.00000035,0.00000349,-0.00000034,0.0
 0000171,-0.00000434,-0.00000023,0.00000020,0.00000082,0.00000026,0.000
 00016,-0.00000005,0.00000100,0.00000376,0.00000018,0.00000011,0.000000
 51,-0.00000179,-0.00000014,-0.00000049,0.00000099,-0.00000015,0.000000
 09,0.00000094,-0.00158127,-0.00002851,0.00034926,-0.00112849,0.0002775
 6,-0.00009191,-0.00021608,-0.00149441,-0.00060508,0.01856331,-0.075363
 59,-0.06942553,0.00183630,-0.00237499,0.00134957,0.00052658,0.00002158
 ,-0.00008451,0.00000190,0.00000137,-0.00000070,0.00000038,0.00000028,-
 0.00000045,-0.00000032,0.00000024,-0.00000054,-0.00000004,-0.00000017,
 0.00000005,-0.00000014,-0.00000008,0.00000018,-0.00000017,0.00000005,0
 .00000021,0.00000039,0.00000027,0.00000200,-0.00000013,0.00000074,0.00
 000039,-0.00000137,-0.00000558,0.00000425,0.00000084,0.00000068,-0.000
 00620,-0.00001676,-0.00000198,0.00003388,-0.00004081,-0.00002766,-0.00
 000557,-0.00001763,-0.00003539,0.00001719,-0.00000561,0.00000945,0.000
 01057,0.00000028,0.00000009,0.00000025,0.00000012,-0.00000009,-0.00000
 056,-0.00000019,-0.00000032,-0.00000057,0.00000013,0.00000007,-0.00000
 006,0.00000002,0.00000018,-0.00000036,0.00016116,-0.00002755,-0.000112
 16,0.00001434,0.00006401,-0.00004111,-0.00002042,0.00072789,0.00000211
 ,-0.01982533,0.07087029,-0.00000331,0.00002232,-0.00000553,0.00000883,
 0.00000135,0.00000616,0.00000096,0.00000134,-0.00000237,0.00000594,0.0
 0001125,-0.00000746,-0.00000144,-0.00002198,0.00001013,0.00000082,-0.0
 0000384,0.00000511,-0.00000106,0.00000451,-0.00000001,0.00000088,-0.00
 000033,0.00000150,0.00000065,-0.00000185,0.00000196,-0.00000086,-0.000
 00085,-0.00000356,0.00000010,-0.00000241,-0.00000015,-0.00000033,0.000
 00104,-0.00000049,0.00000027,-0.00000061,0.00000067,-0.00000055,0.0000
 0099,-0.00000156,0.00000018,-0.00000041,0.00000130,-0.00000580,-0.0000
 0695,-0.00000494,-0.00000412,-0.00000496,0.00000122,-0.00001082,0.0000
 0732,0.00001436,-0.00000132,-0.00000164,0.00000056,0.00000272,0.000009
 49,0.00000405,0.00002857,-0.00003595,-0.00001093,-0.00000954,-0.000014
 37,0.00000249,-0.00028386,-0.00006351,0.00009066,-0.00001195,0.0000031
 1,0.00001991,-0.00000026,-0.00001216,-0.00000472,-0.00001007,0.0000139
 6,-0.00000131,-0.00000077,-0.00000427,0.00001133,0.00000204,0.00000673
 ,0.00000028,0.00000080,0.00000223,0.00000683,0.00000181,0.00000368,-0.
 00000045,-0.00000068,-0.00000286,-0.00001432,0.00000023,-0.00000133,0.
 00000583,0.00000004,0.00000466,0.00000662,0.00063250,0.00035519,0.0000
 4025,-0.00164341,-0.00014205,0.00093775,-0.00033044,-0.00098410,-0.000
 16553,0.06892038,-0.06223426,-0.38972396,-0.00027394,0.00041501,0.0005
 5715,-0.00021122,0.00056094,-0.00005756,0.00000173,0.00000155,-0.00000
 058,0.00000084,0.00000097,-0.00000039,-0.00000032,0.00000055,-0.000001
 77,0.00000004,-0.00000018,-0.00000005,0.00000010,0.00000017,-0.0000000
 6,0.00000011,0.00000007,-0.00000026,0.00000143,0.00000254,0.00000203,0
 .00000117,0.00000171,-0.00000015,-0.00000513,-0.00001295,0.00001114,-0
 .00000955,0.00000907,-0.00001837,-0.00002724,-0.00000307,0.00001198,0.
 00001014,-0.00003481,-0.00000275,0.00010062,0.00001092,-0.00001532,0.0
 0001038,-0.00001733,-0.00002334,0.00000033,0.00000248,-0.00000116,0.00
 000053,0.00000095,0.00000137,-0.00000029,-0.00000108,0.00000122,0.0000
 0015,-0.00000014,-0.00000012,-0.00000024,0.00000059,-0.00000150,-0.000
 07007,-0.00003852,0.00015937,0.00004449,-0.00017799,0.00000476,-0.0015
 1684,0.00025628,0.00209627,-0.07435674,0.07093387,0.41298625,0.0000046
 3,-0.00003302,0.00000913,-0.00001445,-0.00000171,-0.00000871,-0.000000
 11,-0.00000174,0.00000414,-0.00000835,-0.00001747,0.00001250,0.0000002
 6,0.00003552,-0.00001739,-0.00000240,0.00000579,-0.00000851,0.00000227
 ,-0.00000697,-0.00000007,-0.00000144,0.00000065,-0.00000263,-0.0000020
 2,0.00000270,-0.00000331,0.00000173,0.00000163,0.00000643,-0.00000073,
 0.00000342,0.00000015,0.00000074,-0.00000133,0.00000112,-0.00000090,0.
 00000049,-0.00000137,0.00000150,-0.00000104,0.00000247,-0.00000154,0.0
 0000033,-0.00000177,0.00000855,0.00001095,0.00000509,0.00000519,0.0000
 0780,-0.00000251,0.00000830,-0.00000011,-0.00001249,0.00000216,0.00000
 243,-0.00000083,-0.00000483,-0.00001655,-0.00000701,-0.00020824,-0.000
 00753,0.00005179,0.00000604,-0.00002453,-0.00007857,-0.00012995,-0.000
 05219,0.00081036,0.00004409,0.00005235,-0.00003721,-0.00000746,-0.0000
 1914,-0.00002029,0.00003525,-0.00004436,0.00003977,0.00000555,0.000027
 17,-0.00008512,-0.00001020,-0.00002998,0.00000487,-0.00000254,-0.00001
 117,-0.00003877,-0.00000322,0.00001298,0.00000457,0.00000688,0.0000107
 3,0.00006824,-0.00000504,0.00000823,-0.00002873,-0.00000250,-0.0000182
 0,-0.00002901,-0.00237280,0.00041634,-0.00007711,-0.02912546,-0.028773
 61,-0.00725219,-0.02778435,0.00204157,0.00097649,-0.08164243,-0.082363
 61,-0.02447347,0.00466561,-0.00812535,-0.00265765,0.00671028,-0.002219
 01,-0.00031911,-0.00000232,-0.00000193,0.00000116,-0.00000121,-0.00000
 143,0.00000038,0.00000103,-0.00000077,0.00000246,0.00000004,0.00000021
 ,0.00000004,0.00000028,-0.00000010,-0.00000009,0.00000039,0.00000012,0
 .00000008,-0.00000181,-0.00000478,-0.00000213,-0.00000145,-0.00000303,
 0.00000062,0.00001388,0.00001272,-0.00001503,0.00001558,-0.00000972,0.
 00002150,-0.00000014,0.00000630,0.00002998,0.00012740,0.00008854,-0.00
 006885,-0.00012205,-0.00017320,0.00002912,-0.00002646,0.00013779,0.000
 19552,-0.00000080,-0.00000819,0.00000711,-0.00000167,-0.00000544,-0.00
 000987,0.00000144,0.00000327,-0.00001230,0.00000088,0.00000087,0.00000
 037,0.00000266,-0.00000299,0.00000564,-0.00000130,-0.00011988,0.000231
 26,0.00002718,0.00045547,-0.00043164,-0.00345949,0.00044082,0.00171643
 ,0.00381441,0.00782288,0.00301544,0.12280979,0.00000270,-0.00001769,0.
 00001619,-0.00000345,0.00000177,-0.00000055,-0.00000210,0.00000014,0.0
 0000156,-0.00000361,-0.00000654,0.00000579,0.00000526,0.00000427,-0.00
 000746,0.00000066,0.00000164,-0.00000441,-0.00000014,-0.00000265,0.000
 00125,-0.00000096,0.00000066,-0.00000132,0.00000041,0.00000092,-0.0000
 0216,0.00000055,0.00000167,0.00000327,0.00000082,0.00000180,-0.0000015
 1,0.00000063,-0.00000142,0.00000161,-0.00000016,0.00000004,-0.00000217
 ,0.00000055,-0.00000089,0.00000394,0.00000064,0.00000062,-0.00000346,0
 .00000368,0.00000307,0.00000047,0.00000422,0.00000225,-0.00000135,-0.0
 0003186,-0.00001985,-0.00000837,-0.00000025,0.00000034,-0.00000034,-0.
 00000548,-0.00000574,-0.00000321,0.00032470,0.00011641,0.00001770,0.00
 002071,0.00006493,0.00013157,-0.00012648,0.00001687,-0.00076360,-0.000
 04683,-0.00011583,0.00001762,0.00002868,0.00009615,0.00006216,-0.00008
 729,0.00007731,-0.00011067,-0.00001337,-0.00005100,0.00016364,0.000015
 66,0.00004430,-0.00001374,0.00000310,0.00001855,0.00006945,-0.00000073
 ,-0.00004616,-0.00001097,-0.00001129,-0.00001711,-0.00011175,0.0000060
 3,-0.00001513,0.00004757,0.00000379,0.00002753,0.00004566,0.00169980,-
 0.00142164,-0.00057250,-0.02047685,0.00138938,0.00259192,0.03063497,0.
 01554014,0.00198922,-0.06367701,-0.21573997,-0.04052430,-0.02563901,-0
 .00017464,0.00435452,-0.01342046,-0.00263498,-0.00096271,-0.00000159,-
 0.00000275,0.00000019,-0.00000057,-0.00000069,-0.00000033,-0.00000044,
 -0.00000019,0.00000140,-0.00000017,-0.00000006,0.00000015,-0.00000058,
 -0.00000036,0.00000049,-0.00000072,0.,0.00000080,-0.00000084,-0.000001
 65,0.00000042,-0.00000177,-0.00000053,0.00000076,0.00000525,0.00001040
 ,-0.00000488,0.00001032,0.00000085,0.00001582,0.00004388,-0.00001049,-
 0.00011759,0.00009601,-0.00010791,0.00006390,0.00039786,0.00034298,-0.
 00005625,0.00006519,-0.00032605,-0.00035470,0.00000107,0.00000774,-0.0
 0001245,0.00000373,0.00000882,0.00001861,-0.00000149,-0.00000375,0.000
 02474,-0.00000093,-0.00000134,-0.00000089,-0.00000277,0.00000547,-0.00
 000831,-0.00008430,0.00024837,-0.00007927,-0.00025835,-0.00079727,0.00
 051905,0.00217568,-0.00180886,-0.00026346,0.00023533,-0.00014495,-0.00
 018078,0.09475523,0.22190390,-0.00000118,-0.00000487,0.00000583,0.0000
 0063,0.00000021,0.00000060,0.00000010,0.00000060,0.00000047,0.00000054
 ,0.00000028,0.00000104,0.00000021,-0.00000116,-0.00000176,-0.00000030,
 -0.00000064,-0.00000068,0.00000009,0.00000032,0.00000018,-0.00000012,0
 .00000013,-0.00000024,-0.00000050,-0.00000052,-0.00000047,0.00000027,0
 .00000105,0.00000125,0.00000004,-0.00000054,-0.00000057,0.00000016,0.0
 0000015,0.00000048,-0.00000019,-0.00000062,-0.00000068,0.00000020,0.00
 000061,0.00000049,-0.00000035,-0.00000022,-0.00000029,-0.00000039,-0.0
 0000018,-0.00000146,-0.00000013,-0.00000037,-0.00000049,-0.00000693,-0
 .00001158,0.00000138,-0.00000027,-0.00000027,-0.00000005,-0.00000277,-
 0.00000294,-0.00000087,0.00016582,0.00003868,-0.00000164,0.00000565,0.
 00002948,0.00004978,0.00009089,-0.00013172,-0.00055188,-0.00002410,-0.
 00004107,0.00000709,0.00000870,0.00002369,0.00001686,-0.00002076,0.000
 02960,-0.00001754,-0.00000673,-0.00001509,0.00004982,0.00000457,0.0000
 1450,-0.00000375,0.00000055,0.00000581,0.00002045,-0.00000205,-0.00001
 169,-0.00000375,-0.00000178,-0.00000856,-0.00003572,-0.00000065,-0.000
 00373,0.00001462,0.00000027,0.00001111,0.00001547,0.00128704,-0.000094
 46,-0.00017866,-0.00216044,0.00375000,0.00377399,0.00909183,0.00376157
 ,0.00227649,-0.01865343,-0.03791581,-0.08170471,-0.00766527,0.00394695
 ,-0.01075181,-0.00384335,-0.00105931,0.00172640,-0.00000060,-0.0000006
 5,0.00000005,-0.00000006,-0.00000005,-0.00000025,0.00000054,0.00000010
 ,0.00000014,0.,-0.00000015,-0.00000002,0.00000006,0.00000009,0.0000000
 2,0.00000011,0.00000027,-0.00000007,0.00000011,-0.00000010,0.00000079,
 -0.00000014,0.00000005,0.00000032,0.00000066,0.00000247,-0.00000079,-0
 .00000142,0.00000195,0.00000535,0.00001760,-0.00000181,-0.00005009,-0.
 00005377,-0.00003019,0.00002457,0.00011117,0.00009840,-0.00001640,0.00
 000714,-0.00009217,-0.00009973,0.00000119,0.00000312,-0.00000406,0.000
 00170,0.00000267,0.00000576,0.00000040,-0.00000143,0.00000708,0.000000
 49,-0.00000037,-0.00000048,0.00000044,0.00000158,-0.00000328,0.0001139
 5,0.00011927,-0.00031670,-0.00005368,-0.00052127,0.00023492,0.00017027
 ,-0.00064693,-0.00015922,-0.01389484,-0.03348946,-0.00678650,0.0246113
 8,0.03952917,0.08455033,0.00001178,-0.00011063,0.00004411,-0.00003932,
 -0.00000751,-0.00002910,-0.00000295,-0.00000460,0.00001332,-0.00002531
 ,-0.00005130,0.00003620,0.00000398,0.00010440,-0.00005323,-0.00000655,
 0.00001713,-0.00002528,0.00000625,-0.00002045,-0.00000024,-0.00000422,
 0.00000168,-0.00000758,-0.00000531,0.00000774,-0.00000996,0.00000500,0
 .00000537,0.00001915,-0.00000159,0.00000983,0.00000036,0.00000196,-0.0
 0000381,0.00000312,-0.00000214,0.00000139,-0.00000392,0.00000355,-0.00
 000277,0.00000684,-0.00000326,0.00000104,-0.00000526,0.00002486,0.0000
 3212,0.00001736,0.00001709,0.00002295,-0.00000755,-0.00003057,-0.00003
 684,-0.00000983,0.00000624,0.00000718,-0.00000254,-0.00001642,-0.00005
 227,-0.00002278,0.00031231,0.00007148,0.00021832,0.00003898,0.00007923
 ,0.00002191,-0.00001241,-0.00047095,-0.00052157,0.00002353,-0.00006414
 ,-0.00007157,0.00001971,0.00008356,0.00003777,-0.00000806,-0.00002841,
 -0.00001099,0.00000283,-0.00000101,0.00000846,-0.00000338,-0.00001330,
 -0.00000814,-0.00000374,-0.00000681,-0.00000808,-0.00000870,-0.0000295
 2,0.00000035,0.00000198,0.00000211,0.00002835,-0.00000351,0.00000289,-
 0.00001199,-0.00000059,-0.00000824,-0.00001393,0.00308353,0.00136197,-
 0.00087237,-0.01587141,0.02398841,-0.01895686,-0.00527713,-0.00218955,
 -0.00059264,-0.11621507,0.10254420,-0.08483245,0.00224596,-0.00148828,
 -0.00135053,-0.00006743,0.00166928,0.00077214,-0.00001063,-0.00000980,
 0.00000359,-0.00000382,-0.00000437,0.00000102,0.00000296,-0.00000232,0
 .00000778,0.,0.00000058,0.00000012,0.00000038,-0.00000031,-0.00000009,
 0.00000060,0.00000030,0.00000045,-0.00000558,-0.00001326,-0.00000642,-
 0.00000507,-0.00000858,0.00000170,0.00002596,0.00004850,-0.00004677,0.
 00002977,-0.00000650,0.00006143,0.00008978,0.00001608,-0.00020215,0.00
 018323,0.00012791,0.00000457,0.00043162,0.00007794,-0.00009791,-0.0000
 1086,-0.00000574,-0.00004064,-0.00000129,-0.00000588,0.00000103,-0.000
 00091,-0.00000120,0.00000072,0.00000250,0.00000334,0.00000254,0.000000
 45,0.00000022,-0.00000001,0.00000243,-0.00000113,0.00000350,-0.0007165
 4,-0.00002428,0.00050427,-0.00069684,-0.00194642,0.00081601,-0.0027701
 8,0.00133246,0.00093080,0.00503275,-0.00595762,0.00599700,0.00662565,-
 0.00664530,0.01070149,0.12359316,-0.00000051,-0.00001163,0.00001690,-0
 .00000643,0.00000166,-0.00000461,0.00000054,-0.00000014,0.00000177,-0.
 00000362,-0.00000848,0.00000736,0.00000378,0.00001015,-0.00001064,-0.0
 0000027,0.00000216,-0.00000503,0.00000066,-0.00000316,0.00000077,-0.00
 000093,0.00000060,-0.00000148,-0.00000067,0.00000093,-0.00000222,0.000
 00085,0.00000195,0.00000401,0.00000021,0.00000179,-0.00000110,0.000000
 67,-0.00000122,0.00000140,-0.00000051,-0.00000012,-0.00000180,0.000000
 95,-0.00000046,0.00000302,-0.00000056,0.00000030,-0.00000245,0.0000039
 3,0.00000314,0.00000018,0.00000339,0.00000317,-0.00000174,-0.00002770,
 0.00000432,-0.00001247,0.00000026,0.00000065,-0.00000040,-0.00000747,-
 0.00001148,-0.00000870,-0.00011922,0.00001274,0.00001937,-0.00000120,-
 0.00000841,-0.00000754,0.00022382,-0.00056303,0.00038890,0.00000033,0.
 00000462,-0.00000379,0.00000118,-0.00000017,-0.00000112,-0.00000808,-0
 .00000370,0.00000576,0.00000054,0.00000163,-0.00000771,-0.00000079,-0.
 00000321,0.00000011,-0.00000038,-0.00000083,-0.00000263,-0.00000078,0.
 00000080,-0.00000055,0.00000131,-0.00000011,0.00000369,-0.00000191,0.0
 0000043,-0.00000156,-0.00000070,-0.00000063,-0.00000141,-0.00207155,0.
 00243715,0.00009083,-0.00054105,0.00030071,-0.00178310,-0.00186547,-0.
 00162520,-0.00008326,0.10274940,-0.23415655,0.14689001,0.00182445,-0.0
 0131440,-0.00198367,0.00101400,0.00008645,0.00011216,0.00000105,-0.000
 00025,-0.00000025,-0.00000043,-0.00000066,-0.00000037,0.00000027,-0.00
 000013,0.00000111,-0.00000006,-0.00000001,0.00000008,-0.00000010,-0.00
 000015,0.00000019,-0.00000008,0.00000015,0.00000035,-0.00000129,-0.000
 00257,-0.00000008,-0.00000124,-0.00000108,0.00000054,0.00001076,0.0000
 0056,-0.00000285,0.00001575,0.00000627,0.00001079,-0.00000705,-0.00000
 147,0.00002921,-0.00006694,0.00003295,-0.00003510,0.00014675,0.0000711
 5,-0.00006610,0.00000791,0.00002300,0.00002736,0.00000011,-0.00000066,
 0.00000072,-0.00000004,-0.00000049,-0.00000092,0.00000059,0.00000013,-
 0.00000088,0.00000055,0.00000017,-0.00000016,0.00000105,-0.00000003,0.
 ,0.00025935,-0.00002189,-0.00029427,0.00014721,-0.00079276,-0.00038354
 ,-0.00139703,0.00013252,0.00009030,-0.00362417,0.00761441,-0.00863926,
 0.01573476,-0.01646120,0.02271602,-0.11239818,0.24423964,-0.00000737,0
 .00003071,-0.00000694,0.00001272,-0.00000037,0.00000774,0.00000130,0.0
 0000187,-0.00000273,0.00000799,0.00001530,-0.00000900,-0.00000382,-0.0
 0002662,0.00001170,0.00000043,-0.00000554,0.00000628,-0.00000114,0.000
 00635,-0.00000004,0.00000111,-0.00000040,0.00000178,0.00000003,-0.0000
 0288,0.00000231,-0.00000088,-0.00000030,-0.00000364,0.00000010,-0.0000
 0376,-0.00000057,-0.00000031,0.00000160,-0.00000031,0.00000011,-0.0000
 0136,0.00000039,-0.00000056,0.00000198,-0.00000207,-0.00000022,-0.0000
 0083,0.00000191,-0.00000855,-0.00000898,-0.00000803,-0.00000589,-0.000
 00662,0.00000124,0.00004405,-0.00000363,0.00001948,-0.00000207,-0.0000
 0242,0.00000070,0.00000648,0.00001118,0.00000563,0.00014758,0.00000479
 ,-0.00004870,-0.00001557,-0.00000063,0.00000169,-0.00001624,0.00050583
 ,-0.00075866,-0.00001116,0.00000949,0.00001158,-0.00000593,-0.00002544
 ,-0.00001049,0.00000370,0.00000282,0.00001040,-0.00000039,0.00000223,-
 0.00000991,-0.00000030,0.00000072,0.00000278,0.00000036,0.00000124,-0.
 00000145,0.00000021,0.00000927,-0.00000018,0.00000172,-0.00000310,-0.0
 0000293,-0.00000213,0.00000083,0.00000062,-0.00000093,0.00000318,0.000
 00246,0.00199215,-0.00110572,0.00142660,0.00158694,-0.00552415,0.00484
 470,0.00134249,-0.00038698,-0.00044184,-0.08096031,0.14019973,-0.18288
 670,0.00120315,-0.00125070,-0.00084851,0.00056719,-0.00076429,-0.00027
 508,0.00000131,0.00000193,-0.00000075,0.00000112,0.00000120,-0.0000006
 0,0.00000039,0.00000070,-0.00000224,0.00000006,-0.00000039,-0.00000010
 ,0.00000027,0.00000033,-0.00000015,0.00000038,0.00000034,-0.00000053,0
 .00000196,0.00000305,0.00000358,0.00000146,0.00000215,0.00000009,-0.00
 001772,-0.00001023,0.00000872,-0.00003014,0.00000347,-0.00002369,-0.00
 000597,0.00000056,-0.00000730,-0.00009101,-0.00001613,-0.00000073,-0.0
 0029782,-0.00011077,0.00003707,0.00000221,0.00001850,0.00003145,0.0000
 0086,0.00000118,0.00000040,0.00000030,-0.00000016,-0.00000108,0.000000
 67,-0.00000075,-0.00000201,0.00000076,0.00000003,-0.00000019,0.0000010
 0,-0.00000016,-0.00000107,0.00001903,-0.00072057,-0.00031691,0.0000823
 9,0.00057516,0.00070367,0.00013961,0.00014865,0.00006381,-0.01708187,0
 .03100278,-0.02014337,0.00383812,-0.00551515,0.00790257,0.08755661,-0.
 15707013,0.19070714\\-0.00000116,-0.00000107,-0.00000154,-0.00000187,-
 0.00000138,-0.00000406,0.00000101,0.00000170,0.00000351,0.00000179,0.0
 0000443,0.00000007,-0.00000145,-0.00000207,0.00000290,-0.00000195,-0.0
 0000381,0.00000371,0.00000182,0.00000106,0.00000165,0.00000122,-0.0000
 0263,-0.00000066,-0.00000245,0.00000140,-0.00000032,0.00000378,0.00000
 282,-0.00000051,-0.00000363,-0.00000045,0.00000257,0.00000763,0.000001
 30,-0.00000228,-0.00000226,-0.00000057,0.00000099,-0.00000263,0.000000
 46,0.00000112,0.00000108,0.00000060,0.00000121,0.00000105,0.00000317,0
 .00000260,-0.00000162,-0.00000115,0.00000384,0.00000052,0.00000170,-0.
 00000041,-0.00000194,-0.00000091,0.00000050,-0.00000257,-0.00000066,0.
 00000143,-0.00000065,0.00000022,0.00000183,-0.00000084,-0.00000023,0.0
 0000012,-0.00000022,0.00000016,-0.00000021,0.00000022,-0.00000028,-0.0
 0000138,0.00000173,-0.00000038,0.00000100,0.00000178,0.00000032,-0.000
 00161,0.00000098,-0.00000043,-0.00000128,0.00000151,-0.00000014,-0.000
 00065,0.00000190,0.00000073,-0.00000056,0.00000081,0.00000028,-0.00000
 137,0.00000230,0.00000033,-0.00000124,0.00000267,0.00000050,-0.0000012
 2,0.00000259,0.00000058,-0.00000144,-0.00000114,-0.00000030,0.00000050
 ,0.00000094,-0.00000004,-0.00000313,-0.00000292,-0.00000041,0.00000077
 ,0.,-0.00000317,-0.00000092,-0.00000035,-0.00000130,-0.00000190,-0.000
 00038,-0.00000036,-0.00000044,-0.00000088,0.00000057,0.00000051,-0.000
 00041,-0.00000004,0.00000077,0.00000024,0.00000104,0.00000012,-0.00000
 378,-0.00000049,0.00000234,0.00000054,0.00000029,0.00000041,0.00000119
 ,0.00000053,0.00000008,-0.00000186,-0.00000045,0.00000080,-0.00000155,
 0.00000145,0.00000071,0.00000021,-0.00000019,0.00000051,-0.00000006,-0
 .00000051,0.00000010,-0.00000037,0.00000065,0.00000053,-0.00000124,0.0
 0000002,0.00000035,-0.00000062,-0.00000039,0.00000050,-0.00000063,-0.0
 0000014,-0.00000048,0.00000081,-0.00000006,-0.00000117,0.00000172,0.00
 000029,-0.00000152,0.00000134,0.00000030,-0.00000032,0.00000271,0.0000
 0082,-0.00000108,0.00000206,0.00000053,-0.00000090,-0.00000071,-0.0000
 0129,-0.00000087,-0.00000105,-0.00000098,-0.00000010,-0.00000150,-0.00
 000114,-0.00000039,-0.00000240,-0.00000101,-0.00000106,0.00000093,0.00
 000107,-0.00000108,-0.00000198,-0.00000086,-0.00000193\\\@


 WE HAVE LEARNED THAT NOTHING IS SIMPLE AND
 RATIONAL EXCEPT WHAT WE OURSELVES HAVE INVENTED;
 THAT GOD THINKS IN TERMS NEITHER OF EUCLID OR RIEMANN; THAT SCIENCE HAS "EXPLAINED" NOTHING;
 THAT THE MORE WE KNOW THE MORE FANTASTIC THE WORLD BECOMES
 AND THE PROFOUNDER THE SURROUNDING DARKNESS.
   --  ALDOUS HUXLEY
 Job cpu time:       0 days  3 hours 17 minutes 31.4 seconds.
 Elapsed time:       0 days  0 hours 49 minutes 22.3 seconds.
 File lengths (MBytes):  RWF=   1714 Int=      0 D2E=      0 Chk=     35 Scr=      1
 Normal termination of Gaussian 16 at Wed Feb 28 20:38:06 2018.
